/*--------------------------------*- C++ -*----------------------------------*\
| =========                 |                                                 |
| \\      /  F ield         | OpenFOAM: The Open Source CFD Toolbox           |
|  \\    /   O peration     | Version:  v2006                                 |
|   \\  /    A nd           | Website:  www.openfoam.com                      |
|    \\/     M anipulation  |                                                 |
\*---------------------------------------------------------------------------*/
FoamFile
{
    version     2.0;
    format      ascii;
    class       volScalarField;
    location    "220";
    object      alphat;
}
// * * * * * * * * * * * * * * * * * * * * * * * * * * * * * * * * * * * * * //

dimensions      [1 -1 -1 0 0 0 0];


internalField   nonuniform List<scalar> 
93840
(
2.87817e-08
3.41148e-08
3.08398e-08
3.56889e-08
2.86897e-08
3.93425e-08
3.13457e-08
3.57115e-08
3.31285e-08
6.17701e-08
9.22546e-08
2.26172e-08
1.6691e-09
1.16979e-08
1.13333e-07
3.00631e-07
3.36421e-07
3.95806e-07
5.05158e-07
1.66679e-06
7.07442e-06
2.33559e-05
4.35088e-05
4.75885e-05
3.99913e-05
3.42825e-05
2.47719e-05
2.09803e-05
1.80511e-05
1.68137e-05
1.53879e-05
1.45325e-05
1.44874e-05
1.39509e-05
1.40188e-05
1.38904e-05
1.37177e-05
1.37242e-05
1.34992e-05
1.35414e-05
1.33264e-05
1.3357e-05
1.31676e-05
1.31819e-05
1.3003e-05
1.29985e-05
1.28377e-05
1.28309e-05
1.26818e-05
1.26621e-05
1.25283e-05
1.25077e-05
1.23624e-05
1.23243e-05
1.22396e-05
1.22554e-05
1.21344e-05
1.21093e-05
1.19797e-05
1.19344e-05
1.18441e-05
1.18058e-05
1.17191e-05
1.17161e-05
1.1644e-05
1.16223e-05
1.15703e-05
1.15651e-05
1.15118e-05
1.15111e-05
1.14741e-05
1.14664e-05
1.14387e-05
1.14531e-05
1.1428e-05
1.14433e-05
1.14298e-05
1.14445e-05
1.14519e-05
1.14762e-05
1.14772e-05
1.14982e-05
1.15095e-05
1.15511e-05
1.15832e-05
1.16186e-05
1.16566e-05
1.16927e-05
1.17269e-05
1.17695e-05
1.18349e-05
1.1906e-05
1.19761e-05
1.20527e-05
1.21341e-05
1.22259e-05
1.23175e-05
1.24101e-05
1.25083e-05
1.26183e-05
1.27296e-05
1.28343e-05
1.29476e-05
1.31867e-05
1.34108e-05
1.34456e-05
1.34765e-05
1.36449e-05
1.38206e-05
1.39935e-05
1.41633e-05
1.43304e-05
1.44982e-05
1.47013e-05
1.48855e-05
1.50646e-05
1.52321e-05
1.54267e-05
1.55858e-05
1.57472e-05
1.58875e-05
1.60441e-05
1.61415e-05
1.62674e-05
1.63391e-05
1.63679e-05
1.64594e-05
1.64346e-05
1.65102e-05
1.65208e-05
1.65177e-05
1.65286e-05
1.6518e-05
1.65525e-05
1.65469e-05
1.65569e-05
1.65387e-05
1.65617e-05
1.65529e-05
1.658e-05
1.65787e-05
1.65927e-05
1.65586e-05
1.65817e-05
1.65689e-05
1.65844e-05
1.65729e-05
1.65706e-05
1.65324e-05
1.65082e-05
1.64673e-05
1.64372e-05
1.63732e-05
1.63118e-05
1.62391e-05
1.61582e-05
1.60242e-05
1.58984e-05
1.57684e-05
1.56285e-05
1.54475e-05
1.52635e-05
1.50674e-05
1.48384e-05
1.45227e-05
1.41095e-05
1.36422e-05
1.31921e-05
1.25789e-05
1.10163e-05
7.32406e-06
2.12e-06
3.96809e-06
1.00653e-05
6.07563e-06
1.42566e-08
2.29244e-09
1.25207e-06
3.00446e-07
1.29147e-07
1.26603e-09
1.10784e-06
2.1877e-07
2.22271e-07
1.17343e-08
6.23775e-10
7.18235e-06
1.07178e-05
1.11527e-06
4.24605e-06
1.30304e-05
1.53749e-05
1.33115e-05
1.33354e-05
1.49108e-05
1.63535e-05
1.69248e-05
1.70075e-05
1.68838e-05
1.68237e-05
1.68095e-05
1.68225e-05
1.66211e-05
1.65743e-05
1.64794e-05
1.64735e-05
1.63665e-05
1.63355e-05
1.62027e-05
1.61684e-05
1.60137e-05
1.59777e-05
1.58132e-05
1.57735e-05
1.55945e-05
1.55648e-05
1.54013e-05
1.53504e-05
1.51787e-05
1.51374e-05
1.49459e-05
1.49421e-05
1.47777e-05
1.47492e-05
1.45871e-05
1.4566e-05
1.43988e-05
1.43948e-05
1.42438e-05
1.4222e-05
1.40518e-05
1.40337e-05
1.38824e-05
1.38746e-05
1.36935e-05
1.36961e-05
1.35475e-05
1.35224e-05
1.34085e-05
1.33628e-05
1.32685e-05
1.32224e-05
1.31635e-05
1.30693e-05
1.3068e-05
1.29157e-05
1.29635e-05
1.27628e-05
1.2928e-05
1.27699e-05
1.211e-05
8.29974e-06
4.19948e-06
4.66503e-06
4.52505e-06
4.96737e-06
4.95094e-06
5.28979e-06
5.31328e-06
5.49748e-06
5.48461e-06
5.52986e-06
5.45588e-06
5.39757e-06
5.25045e-06
5.10804e-06
4.9225e-06
4.69973e-06
4.36291e-06
4.07189e-06
3.89967e-06
3.6879e-06
3.37571e-06
3.19036e-06
3.12968e-06
3.06e-06
2.98219e-06
2.91878e-06
2.85986e-06
2.80133e-06
2.74093e-06
2.68377e-06
2.65418e-06
2.63178e-06
2.60271e-06
2.58386e-06
2.55348e-06
2.53633e-06
2.50513e-06
2.49038e-06
2.46146e-06
2.46105e-06
2.46125e-06
2.5321e-06
2.56814e-06
2.67025e-06
2.70264e-06
2.80307e-06
2.82432e-06
2.91521e-06
2.92476e-06
3.00503e-06
3.00449e-06
3.07485e-06
3.06508e-06
3.12543e-06
3.10836e-06
3.15933e-06
3.13484e-06
3.17599e-06
3.14513e-06
3.17519e-06
3.13754e-06
3.16085e-06
3.11766e-06
3.13325e-06
3.08276e-06
3.0869e-06
3.02454e-06
3.01749e-06
2.94265e-06
2.92405e-06
2.83487e-06
2.80466e-06
2.73601e-06
2.78117e-06
2.87124e-06
2.97873e-06
3.09555e-06
3.24156e-06
3.38035e-06
3.5319e-06
3.79832e-06
4.39269e-06
5.24396e-06
5.60324e-06
1.32474e-05
2.34428e-05
3.22869e-05
3.84438e-05
4.45323e-05
4.43619e-05
4.74508e-05
4.54738e-05
4.89509e-05
4.65992e-05
2.79349e-05
9.09763e-06
2.28214e-06
5.72651e-07
3.59014e-07
3.23767e-07
3.01452e-07
1.13501e-07
1.20914e-08
1.61068e-09
2.1534e-08
9.11758e-08
6.23829e-08
3.28661e-08
3.4312e-08
3.15663e-08
3.94362e-08
2.90053e-08
3.52056e-08
3.0268e-08
3.34328e-08
2.87989e-08
2.8777e-08
3.39803e-08
3.02008e-08
3.50769e-08
2.90632e-08
3.89612e-08
3.12473e-08
3.39735e-08
3.23099e-08
6.19037e-08
9.21103e-08
2.33034e-08
1.73684e-09
1.10152e-08
1.05899e-07
2.94546e-07
3.14159e-07
3.35876e-07
4.36729e-07
1.22343e-06
5.04509e-06
1.85735e-05
3.92744e-05
4.85052e-05
4.50492e-05
4.36292e-05
3.74341e-05
3.10297e-05
2.6033e-05
2.20136e-05
1.95506e-05
1.78329e-05
1.72248e-05
1.7076e-05
1.75447e-05
1.68929e-05
1.77025e-05
1.6866e-05
1.77628e-05
1.6897e-05
1.77599e-05
1.69288e-05
1.77553e-05
1.6989e-05
1.77385e-05
1.70539e-05
1.77114e-05
1.71077e-05
1.76865e-05
1.71718e-05
1.76606e-05
1.72284e-05
1.76487e-05
1.72591e-05
1.75904e-05
1.72813e-05
1.7615e-05
1.73926e-05
1.76506e-05
1.73757e-05
1.75814e-05
1.74336e-05
1.76096e-05
1.7447e-05
1.76057e-05
1.74868e-05
1.75932e-05
1.75e-05
1.76202e-05
1.75486e-05
1.7633e-05
1.75786e-05
1.76454e-05
1.76172e-05
1.76838e-05
1.76501e-05
1.77017e-05
1.76778e-05
1.77283e-05
1.77248e-05
1.77733e-05
1.77641e-05
1.77996e-05
1.77972e-05
1.7837e-05
1.78448e-05
1.78705e-05
1.7883e-05
1.79002e-05
1.78974e-05
1.79033e-05
1.79066e-05
1.7916e-05
1.79151e-05
1.79139e-05
1.79052e-05
1.79001e-05
1.78875e-05
1.78686e-05
1.78459e-05
1.78154e-05
1.77722e-05
1.77037e-05
1.76274e-05
1.75834e-05
1.75719e-05
1.75044e-05
1.74093e-05
1.73238e-05
1.72365e-05
1.71434e-05
1.70492e-05
1.69527e-05
1.68408e-05
1.67218e-05
1.66085e-05
1.64944e-05
1.6369e-05
1.62345e-05
1.61115e-05
1.59858e-05
1.58529e-05
1.57193e-05
1.56027e-05
1.54724e-05
1.54051e-05
1.52599e-05
1.52104e-05
1.50777e-05
1.49804e-05
1.48885e-05
1.47864e-05
1.47083e-05
1.4601e-05
1.44805e-05
1.43987e-05
1.42935e-05
1.42052e-05
1.40707e-05
1.39575e-05
1.38076e-05
1.36841e-05
1.35567e-05
1.34362e-05
1.32714e-05
1.31285e-05
1.29382e-05
1.27573e-05
1.2545e-05
1.23518e-05
1.21193e-05
1.18677e-05
1.1558e-05
1.12416e-05
1.08981e-05
1.04706e-05
9.97094e-06
9.52148e-06
9.01331e-06
8.30578e-06
7.49144e-06
6.91136e-06
6.41576e-06
5.5404e-06
4.06809e-06
2.63164e-06
2.24549e-06
2.94777e-06
3.06531e-06
1.79288e-06
6.38673e-08
3.45414e-10
1.61456e-07
9.23505e-08
7.10898e-08
5.48679e-09
4.46603e-07
2.86119e-07
3.62368e-07
6.31695e-07
3.34845e-08
7.03122e-07
9.89298e-07
1.58273e-06
9.68055e-07
4.57504e-07
8.91851e-07
6.02531e-07
5.35808e-09
2.5857e-08
3.21945e-06
3.68116e-06
1.42818e-06
1.59126e-06
2.83761e-06
3.97214e-06
5.81534e-06
7.09161e-06
7.29906e-06
7.94723e-06
8.87501e-06
9.68667e-06
1.0199e-05
1.06036e-05
1.10102e-05
1.15662e-05
1.19339e-05
1.23345e-05
1.25584e-05
1.28622e-05
1.29631e-05
1.31492e-05
1.32098e-05
1.33958e-05
1.3438e-05
1.35776e-05
1.35995e-05
1.37107e-05
1.37268e-05
1.38218e-05
1.37144e-05
1.38248e-05
1.38532e-05
1.39509e-05
1.39905e-05
1.41058e-05
1.41221e-05
1.42138e-05
1.42238e-05
1.43206e-05
1.42908e-05
1.42679e-05
1.42408e-05
1.4247e-05
1.41085e-05
1.42742e-05
1.41751e-05
1.43445e-05
1.42594e-05
1.44335e-05
1.42762e-05
1.4502e-05
1.42524e-05
1.45467e-05
1.42328e-05
1.44937e-05
1.42532e-05
1.44099e-05
1.44886e-05
1.49007e-05
1.563e-05
1.5988e-05
2.06209e-05
2.43834e-05
2.53871e-05
2.5119e-05
2.49776e-05
2.44741e-05
2.41579e-05
2.36593e-05
2.32897e-05
2.28379e-05
2.24759e-05
2.20686e-05
2.17238e-05
2.13764e-05
2.10582e-05
2.06818e-05
2.03908e-05
2.0197e-05
1.99198e-05
1.95615e-05
1.92545e-05
1.90551e-05
1.88053e-05
1.85121e-05
1.82186e-05
1.7993e-05
1.77536e-05
1.752e-05
1.72699e-05
1.70313e-05
1.67818e-05
1.65637e-05
1.63211e-05
1.61269e-05
1.5891e-05
1.57145e-05
1.54875e-05
1.53332e-05
1.51194e-05
1.49867e-05
1.47844e-05
1.46678e-05
1.44781e-05
1.43732e-05
1.41964e-05
1.41065e-05
1.3948e-05
1.38711e-05
1.37294e-05
1.36575e-05
1.35301e-05
1.34678e-05
1.33651e-05
1.33153e-05
1.32363e-05
1.31986e-05
1.31441e-05
1.31211e-05
1.30975e-05
1.30901e-05
1.30988e-05
1.31225e-05
1.3172e-05
1.32358e-05
1.33373e-05
1.34498e-05
1.36075e-05
1.37844e-05
1.40192e-05
1.42776e-05
1.46056e-05
1.49511e-05
1.53716e-05
1.57999e-05
1.63073e-05
1.68053e-05
1.74582e-05
1.80691e-05
1.88156e-05
1.95558e-05
2.07008e-05
2.23304e-05
2.4592e-05
2.84981e-05
3.98477e-05
5.28864e-05
6.65861e-05
7.77943e-05
8.74918e-05
8.93771e-05
8.96301e-05
7.95839e-05
6.9799e-05
5.4666e-05
3.24572e-05
1.1934e-05
2.98614e-06
7.4179e-07
4.2469e-07
3.36751e-07
3.06203e-07
1.19031e-07
1.2945e-08
1.56099e-09
2.0742e-08
9.12429e-08
6.22692e-08
3.37718e-08
3.60951e-08
3.17013e-08
3.98312e-08
2.87399e-08
3.56428e-08
3.09125e-08
3.32948e-08
2.86553e-08
2.88927e-08
3.44937e-08
3.08735e-08
3.54842e-08
2.89954e-08
3.83992e-08
3.10912e-08
3.54356e-08
3.25311e-08
6.10022e-08
9.33439e-08
2.43866e-08
1.8263e-09
1.07902e-08
1.0582e-07
2.94624e-07
3.31983e-07
3.75841e-07
4.05442e-07
8.25183e-07
3.53776e-06
1.38874e-05
3.34678e-05
4.6226e-05
4.45049e-05
4.43763e-05
4.16187e-05
3.83958e-05
3.53822e-05
3.25622e-05
3.06696e-05
2.93421e-05
2.79864e-05
2.85159e-05
2.79154e-05
2.80961e-05
2.79827e-05
2.79686e-05
2.80458e-05
2.79447e-05
2.80782e-05
2.79475e-05
2.81231e-05
2.79761e-05
2.81648e-05
2.8001e-05
2.81994e-05
2.80226e-05
2.82324e-05
2.8048e-05
2.82621e-05
2.80684e-05
2.82779e-05
2.80578e-05
2.82778e-05
2.80974e-05
2.83482e-05
2.8186e-05
2.83731e-05
2.81272e-05
2.82933e-05
2.81351e-05
2.8283e-05
2.81119e-05
2.8263e-05
2.81061e-05
2.82171e-05
2.808e-05
2.81932e-05
2.80724e-05
2.81492e-05
2.80292e-05
2.80871e-05
2.79958e-05
2.8042e-05
2.79328e-05
2.79555e-05
2.78503e-05
2.78699e-05
2.77816e-05
2.77808e-05
2.76694e-05
2.76439e-05
2.75367e-05
2.75054e-05
2.73969e-05
2.73311e-05
2.72097e-05
2.71037e-05
2.69468e-05
2.6814e-05
2.66605e-05
2.65157e-05
2.6339e-05
2.61668e-05
2.5967e-05
2.5778e-05
2.5555e-05
2.53275e-05
2.50786e-05
2.48121e-05
2.45126e-05
2.41801e-05
2.38424e-05
2.35786e-05
2.33344e-05
2.29779e-05
2.25811e-05
2.22017e-05
2.18107e-05
2.14142e-05
2.10105e-05
2.06053e-05
2.01719e-05
1.97415e-05
1.93204e-05
1.89136e-05
1.84794e-05
1.80557e-05
1.76527e-05
1.72755e-05
1.68731e-05
1.6525e-05
1.61793e-05
1.5863e-05
1.55991e-05
1.52639e-05
1.50575e-05
1.4699e-05
1.4463e-05
1.41675e-05
1.39015e-05
1.3629e-05
1.33301e-05
1.30203e-05
1.27532e-05
1.24439e-05
1.214e-05
1.1779e-05
1.14195e-05
1.10233e-05
1.06642e-05
1.02781e-05
9.8715e-06
9.40288e-06
8.94851e-06
8.44737e-06
7.95006e-06
7.38437e-06
6.77731e-06
6.07245e-06
5.42223e-06
4.90278e-06
4.4812e-06
3.8158e-06
2.95117e-06
2.50983e-06
2.54948e-06
2.02552e-06
9.87314e-07
6.22669e-07
7.15149e-07
4.55723e-07
3.73602e-07
2.74351e-07
1.64877e-07
2.5582e-07
1.32993e-07
1.35037e-08
9.0081e-08
2.72154e-07
3.71961e-07
4.0655e-07
4.90567e-07
4.86864e-07
4.47099e-07
1.16535e-07
7.74521e-08
2.24324e-07
5.68684e-07
9.26036e-09
1.14213e-06
1.59856e-06
1.02846e-06
8.06567e-07
6.61061e-07
4.72748e-07
8.05076e-07
2.10717e-07
1.27578e-07
8.18676e-07
8.55473e-07
1.04114e-08
6.14259e-09
4.98658e-07
4.93208e-07
6.13612e-07
1.06601e-06
8.91942e-07
1.61943e-06
2.06421e-06
2.2565e-06
2.57926e-06
2.88174e-06
3.35273e-06
4.06208e-06
4.68442e-06
5.51367e-06
6.23186e-06
7.02151e-06
7.55404e-06
8.19889e-06
8.71287e-06
9.39078e-06
9.92634e-06
1.04564e-05
1.08226e-05
1.12315e-05
1.15537e-05
1.19414e-05
1.21382e-05
1.24818e-05
1.2823e-05
1.3146e-05
1.34798e-05
1.37915e-05
1.41122e-05
1.43644e-05
1.46351e-05
1.48538e-05
1.51184e-05
1.52797e-05
1.54572e-05
1.56483e-05
1.56046e-05
1.59727e-05
1.59895e-05
1.64129e-05
1.6406e-05
1.68193e-05
1.66903e-05
1.72289e-05
1.69667e-05
1.75409e-05
1.7215e-05
1.77229e-05
1.74985e-05
1.78167e-05
1.79521e-05
1.85864e-05
2.06053e-05
2.07026e-05
2.71179e-05
3.43993e-05
3.91751e-05
4.18484e-05
4.37245e-05
4.48264e-05
4.55749e-05
4.58887e-05
4.60031e-05
4.58772e-05
4.56828e-05
4.53464e-05
4.49937e-05
4.46025e-05
4.42084e-05
4.36386e-05
4.31438e-05
4.28947e-05
4.25252e-05
4.19083e-05
4.13093e-05
4.09643e-05
4.05586e-05
4.0039e-05
3.94938e-05
3.9074e-05
3.86118e-05
3.81624e-05
3.76629e-05
3.71916e-05
3.66968e-05
3.62617e-05
3.57695e-05
3.53678e-05
3.48773e-05
3.45045e-05
3.40284e-05
3.37017e-05
3.32523e-05
3.29712e-05
3.25512e-05
3.23138e-05
3.19251e-05
3.17197e-05
3.13557e-05
3.11786e-05
3.08502e-05
3.06953e-05
3.03979e-05
3.02483e-05
2.99779e-05
2.98432e-05
2.96268e-05
2.95159e-05
2.93415e-05
2.92426e-05
2.91152e-05
2.90395e-05
2.89702e-05
2.89273e-05
2.89205e-05
2.89236e-05
2.89884e-05
2.90576e-05
2.92171e-05
2.93794e-05
2.96524e-05
2.99295e-05
3.03407e-05
3.07575e-05
3.13276e-05
3.19036e-05
3.26415e-05
3.33837e-05
3.43049e-05
3.51885e-05
3.63191e-05
3.73743e-05
3.87053e-05
3.9932e-05
4.16964e-05
4.33125e-05
4.61455e-05
4.99532e-05
5.72665e-05
7.4075e-05
9.26492e-05
0.000109642
0.000124175
0.000131875
0.00013567
0.000126324
0.00011211
8.27933e-05
4.23013e-05
1.49751e-05
4.0883e-06
8.98482e-07
3.85766e-07
3.28108e-07
3.10186e-07
1.19274e-07
1.38426e-08
1.50947e-09
1.95504e-08
8.97534e-08
6.2853e-08
3.32337e-08
3.44524e-08
3.18929e-08
3.97405e-08
2.88973e-08
3.55454e-08
3.05343e-08
3.25179e-08
2.87487e-08
2.88421e-08
3.40203e-08
3.0167e-08
3.48883e-08
2.97025e-08
3.80714e-08
3.09658e-08
3.38572e-08
3.19499e-08
6.13582e-08
9.32969e-08
2.50012e-08
1.89112e-09
1.03479e-08
9.92867e-08
2.86492e-07
3.12009e-07
3.31586e-07
4.03816e-07
6.63633e-07
2.42038e-06
1.03407e-05
2.80429e-05
4.36486e-05
4.45784e-05
4.51352e-05
4.41353e-05
4.15744e-05
4.00202e-05
3.81356e-05
3.69405e-05
3.60823e-05
3.56601e-05
3.52551e-05
3.52515e-05
3.50301e-05
3.5141e-05
3.50155e-05
3.51306e-05
3.50591e-05
3.51509e-05
3.50927e-05
3.51999e-05
3.514e-05
3.52424e-05
3.5182e-05
3.5287e-05
3.5219e-05
3.53249e-05
3.52524e-05
3.53566e-05
3.52697e-05
3.53707e-05
3.52692e-05
3.53876e-05
3.5285e-05
3.54262e-05
3.53297e-05
3.54335e-05
3.52597e-05
3.53605e-05
3.52279e-05
3.53172e-05
3.51578e-05
3.52572e-05
3.51092e-05
3.51798e-05
3.50303e-05
3.50978e-05
3.49528e-05
3.49824e-05
3.48298e-05
3.48444e-05
3.47067e-05
3.47054e-05
3.45403e-05
3.45084e-05
3.43418e-05
3.43015e-05
3.41371e-05
3.40696e-05
3.3875e-05
3.37768e-05
3.35751e-05
3.34553e-05
3.32402e-05
3.30716e-05
3.28266e-05
3.26046e-05
3.23171e-05
3.20562e-05
3.17562e-05
3.14685e-05
3.11351e-05
3.0807e-05
3.04361e-05
3.00773e-05
2.96695e-05
2.92607e-05
2.88144e-05
2.83457e-05
2.7838e-05
2.73097e-05
2.67508e-05
2.62424e-05
2.57698e-05
2.52074e-05
2.45844e-05
2.39644e-05
2.33281e-05
2.269e-05
2.20428e-05
2.14071e-05
2.07288e-05
2.00639e-05
1.94129e-05
1.87989e-05
1.81377e-05
1.75038e-05
1.69015e-05
1.63479e-05
1.57443e-05
1.52389e-05
1.47131e-05
1.42422e-05
1.37993e-05
1.33357e-05
1.29398e-05
1.24341e-05
1.20402e-05
1.15665e-05
1.11534e-05
1.06984e-05
1.02337e-05
9.73197e-06
9.29204e-06
8.76802e-06
8.24361e-06
7.62662e-06
6.97808e-06
6.26822e-06
5.59714e-06
4.89516e-06
4.19019e-06
3.51068e-06
3.01102e-06
2.59122e-06
2.19934e-06
1.76732e-06
1.34977e-06
8.67096e-07
5.38204e-07
4.95559e-07
6.51183e-07
5.27739e-07
2.7108e-07
2.8726e-07
3.53812e-07
1.81788e-07
1.90319e-07
2.34871e-07
1.44544e-07
1.2683e-07
1.9425e-07
1.4861e-07
2.11331e-07
1.89299e-07
1.3406e-07
1.679e-07
1.4799e-07
1.61091e-07
3.67076e-07
2.88248e-07
1.75865e-07
1.09393e-07
1.24718e-07
4.52716e-07
6.44309e-07
6.58531e-07
6.57737e-07
1.42304e-08
1.57684e-06
1.40618e-06
9.04161e-07
7.00833e-07
5.74591e-07
2.57093e-07
2.69658e-07
1.06416e-07
8.60359e-08
2.16349e-07
2.44744e-07
1.19328e-08
1.10699e-08
1.84994e-07
2.10236e-07
3.7559e-09
5.963e-08
5.55158e-08
7.26222e-08
9.34149e-08
9.79534e-08
1.0176e-07
2.5429e-07
1.97772e-07
3.2542e-07
4.09068e-07
8.21486e-07
9.25104e-07
1.44749e-06
1.72448e-06
2.15882e-06
2.53622e-06
3.20752e-06
3.98278e-06
4.68801e-06
5.29877e-06
5.9109e-06
6.56001e-06
7.28729e-06
7.95625e-06
8.61813e-06
9.35868e-06
9.94344e-06
1.06209e-05
1.11149e-05
1.17501e-05
1.21572e-05
1.26849e-05
1.30256e-05
1.35544e-05
1.39374e-05
1.43815e-05
1.4751e-05
1.48671e-05
1.54042e-05
1.55815e-05
1.6167e-05
1.63328e-05
1.68675e-05
1.69163e-05
1.75605e-05
1.74677e-05
1.81311e-05
1.80652e-05
1.85e-05
1.86147e-05
1.87919e-05
1.93347e-05
1.98923e-05
2.31343e-05
2.42927e-05
3.05031e-05
3.92038e-05
4.65018e-05
5.13317e-05
5.49675e-05
5.75126e-05
5.94762e-05
6.08395e-05
6.18347e-05
6.2486e-05
6.2949e-05
6.31922e-05
6.33259e-05
6.33827e-05
6.33841e-05
6.30982e-05
6.27864e-05
6.28837e-05
6.29105e-05
6.24478e-05
6.18294e-05
6.15785e-05
6.13546e-05
6.08951e-05
6.02865e-05
5.98192e-05
5.93214e-05
5.88225e-05
5.82327e-05
5.76819e-05
5.70659e-05
5.651e-05
5.58806e-05
5.53589e-05
5.47164e-05
5.42115e-05
5.35721e-05
5.31157e-05
5.25009e-05
5.20951e-05
5.1513e-05
5.11598e-05
5.0609e-05
5.02969e-05
4.97768e-05
4.94983e-05
4.90224e-05
4.87767e-05
4.83367e-05
4.80908e-05
4.76815e-05
4.7462e-05
4.71314e-05
4.69467e-05
4.66703e-05
4.64937e-05
4.62777e-05
4.61325e-05
4.60007e-05
4.59065e-05
4.58658e-05
4.58279e-05
4.5879e-05
4.59276e-05
4.61119e-05
4.62964e-05
4.66499e-05
4.69965e-05
4.7537e-05
4.80698e-05
4.88209e-05
4.95636e-05
5.05444e-05
5.151e-05
5.271e-05
5.3866e-05
5.52783e-05
5.66083e-05
5.82301e-05
5.97104e-05
6.1616e-05
6.3506e-05
6.65455e-05
7.01836e-05
7.78322e-05
9.18669e-05
0.000113242
0.000132892
0.000150957
0.000163278
0.000171064
0.000165538
0.000152806
0.00011745
6.51858e-05
1.97019e-05
5.10728e-06
1.19906e-06
4.66868e-07
3.4161e-07
3.15858e-07
1.26079e-07
1.49409e-08
1.49785e-09
1.884e-08
8.99801e-08
6.29261e-08
3.41547e-08
3.62109e-08
3.19629e-08
4.02634e-08
2.85846e-08
3.61121e-08
3.11322e-08
3.28673e-08
2.87431e-08
2.88867e-08
3.49902e-08
3.06398e-08
3.52155e-08
2.96487e-08
3.77444e-08
3.08966e-08
3.52332e-08
3.21482e-08
6.06269e-08
9.44035e-08
2.60328e-08
1.98598e-09
1.0384e-08
9.86336e-08
2.85669e-07
3.26248e-07
3.58262e-07
3.83732e-07
5.06433e-07
1.59694e-06
7.15973e-06
2.2268e-05
3.95836e-05
4.33946e-05
4.45485e-05
4.53712e-05
4.40886e-05
4.33739e-05
4.2345e-05
4.16817e-05
4.11811e-05
4.06756e-05
4.06668e-05
4.0327e-05
4.04483e-05
4.02572e-05
4.03975e-05
4.02938e-05
4.0422e-05
4.0356e-05
4.04606e-05
4.04318e-05
4.05097e-05
4.05034e-05
4.05534e-05
4.0572e-05
4.05942e-05
4.06223e-05
4.06281e-05
4.06584e-05
4.06432e-05
4.06737e-05
4.06466e-05
4.06928e-05
4.0642e-05
4.07023e-05
4.06403e-05
4.06839e-05
4.05829e-05
4.06208e-05
4.05061e-05
4.05224e-05
4.03916e-05
4.04279e-05
4.02915e-05
4.0309e-05
4.01529e-05
4.01493e-05
3.99874e-05
3.99573e-05
3.97803e-05
3.97293e-05
3.95462e-05
3.94768e-05
3.92599e-05
3.91564e-05
3.89278e-05
3.88077e-05
3.85648e-05
3.84135e-05
3.81348e-05
3.79462e-05
3.76436e-05
3.74161e-05
3.70881e-05
3.67984e-05
3.64256e-05
3.60765e-05
3.56539e-05
3.52512e-05
3.47966e-05
3.43545e-05
3.3857e-05
3.33616e-05
3.28132e-05
3.22755e-05
3.16778e-05
3.1083e-05
3.04351e-05
2.97646e-05
2.90542e-05
2.83336e-05
2.75378e-05
2.67706e-05
2.60777e-05
2.53329e-05
2.4494e-05
2.36487e-05
2.27832e-05
2.19261e-05
2.10601e-05
2.02251e-05
1.93301e-05
1.84673e-05
1.76239e-05
1.68432e-05
1.59836e-05
1.51847e-05
1.44113e-05
1.37161e-05
1.29245e-05
1.22936e-05
1.15873e-05
1.0984e-05
1.03559e-05
9.78093e-06
9.17645e-06
8.53129e-06
7.91403e-06
7.22784e-06
6.58762e-06
5.87462e-06
5.16271e-06
4.40389e-06
3.79197e-06
3.12639e-06
2.5634e-06
1.89275e-06
1.30635e-06
7.98909e-07
5.61931e-07
2.66367e-07
1.69287e-07
1.16319e-07
1.75797e-07
1.36176e-07
1.68299e-07
1.34713e-07
1.87799e-07
1.46861e-07
2.01463e-07
1.63761e-07
2.76196e-07
2.73616e-07
2.7971e-07
2.14461e-07
1.81737e-07
1.83749e-07
2.5574e-07
1.42744e-07
1.44288e-07
1.1443e-07
1.30824e-07
1.51247e-07
1.51988e-07
5.90374e-08
5.16833e-08
8.47149e-08
1.49532e-07
2.69534e-07
1.79914e-07
1.4011e-07
1.37926e-07
2.99942e-07
4.83652e-07
8.28444e-07
7.13097e-07
1.12677e-07
1.25683e-07
1.32076e-11
1.48455e-06
1.60196e-06
1.07135e-06
1.11843e-06
6.43405e-07
4.54357e-07
2.96725e-07
1.44596e-07
1.42775e-07
2.00994e-07
9.69861e-08
4.93948e-09
2.22554e-08
1.24257e-07
6.34259e-08
5.15504e-09
2.20598e-08
4.83377e-08
3.74755e-08
2.36921e-08
2.15406e-08
2.30633e-08
2.00427e-08
2.97985e-08
2.56722e-08
4.28574e-08
5.98362e-08
2.74186e-08
4.83919e-08
4.5676e-08
1.67981e-08
5.64367e-08
5.01218e-08
2.96021e-07
4.27475e-07
8.3761e-07
8.49234e-07
1.29847e-06
1.66317e-06
2.29769e-06
2.73387e-06
3.68562e-06
4.37794e-06
5.43027e-06
6.09918e-06
7.11847e-06
7.73258e-06
8.58797e-06
9.07933e-06
9.92662e-06
1.05766e-05
1.12869e-05
1.18902e-05
1.22293e-05
1.28858e-05
1.33241e-05
1.40199e-05
1.44706e-05
1.50377e-05
1.53961e-05
1.60368e-05
1.63277e-05
1.68299e-05
1.72413e-05
1.75413e-05
1.81134e-05
1.80873e-05
1.89989e-05
1.93748e-05
2.36629e-05
2.63198e-05
3.23337e-05
4.11537e-05
5.0137e-05
5.68296e-05
6.22328e-05
6.62605e-05
6.95505e-05
7.20721e-05
7.40989e-05
7.56718e-05
7.69644e-05
7.7974e-05
7.87956e-05
7.95002e-05
8.01233e-05
8.03786e-05
8.04953e-05
8.11314e-05
8.18054e-05
8.18222e-05
8.14489e-05
8.15018e-05
8.1735e-05
8.16437e-05
8.12224e-05
8.09088e-05
8.05964e-05
8.02646e-05
7.97996e-05
7.93358e-05
7.87799e-05
7.82604e-05
7.76443e-05
7.71265e-05
7.64645e-05
7.59279e-05
7.52301e-05
7.47141e-05
7.40186e-05
7.35373e-05
7.28622e-05
7.24283e-05
7.17737e-05
7.13737e-05
7.07448e-05
7.03784e-05
6.97952e-05
6.94623e-05
6.89112e-05
6.8572e-05
6.80467e-05
6.7741e-05
6.73119e-05
6.70506e-05
6.66769e-05
6.64148e-05
6.61047e-05
6.588e-05
6.56733e-05
6.55138e-05
6.54183e-05
6.53214e-05
6.53319e-05
6.53329e-05
6.5512e-05
6.56876e-05
6.60888e-05
6.64682e-05
6.71019e-05
6.77099e-05
6.86025e-05
6.94607e-05
7.06368e-05
7.1758e-05
7.31931e-05
7.45359e-05
7.61807e-05
7.7646e-05
7.94963e-05
8.11812e-05
8.32226e-05
8.51961e-05
8.81288e-05
9.18966e-05
9.89058e-05
0.000110862
0.000132252
0.000154454
0.00017541
0.000192325
0.000204675
0.000203845
0.000193933
0.000156288
0.000103095
2.76493e-05
6.83091e-06
1.44858e-06
4.52143e-07
3.3639e-07
3.20816e-07
1.2652e-07
1.58822e-08
1.45735e-09
1.78576e-08
8.85124e-08
6.34159e-08
3.35349e-08
3.45719e-08
3.22165e-08
4.04297e-08
2.89321e-08
3.57799e-08
3.06206e-08
3.21656e-08
2.88471e-08
2.89467e-08
3.43737e-08
3.03589e-08
3.52143e-08
3.01388e-08
3.74667e-08
3.07863e-08
3.36769e-08
3.16762e-08
6.07414e-08
9.45833e-08
2.67039e-08
2.03276e-09
9.9527e-09
9.34528e-08
2.77224e-07
3.08388e-07
3.24517e-07
4.02671e-07
4.76846e-07
9.68517e-07
4.74437e-06
1.65087e-05
3.43235e-05
4.13778e-05
4.31634e-05
4.51831e-05
4.4797e-05
4.48296e-05
4.4405e-05
4.41507e-05
4.3988e-05
4.37972e-05
4.37681e-05
4.36773e-05
4.37329e-05
4.36835e-05
4.37947e-05
4.37562e-05
4.38819e-05
4.38558e-05
4.39633e-05
4.39597e-05
4.40588e-05
4.40496e-05
4.41422e-05
4.41393e-05
4.42139e-05
4.42078e-05
4.42668e-05
4.42558e-05
4.42951e-05
4.42847e-05
4.43101e-05
4.43016e-05
4.42938e-05
4.4297e-05
4.42477e-05
4.42478e-05
4.42124e-05
4.42178e-05
4.41122e-05
4.40549e-05
4.39441e-05
4.39276e-05
4.38005e-05
4.37565e-05
4.3607e-05
4.35289e-05
4.33423e-05
4.3248e-05
4.30455e-05
4.29194e-05
4.26966e-05
4.25463e-05
4.22787e-05
4.20918e-05
4.18017e-05
4.15885e-05
4.12682e-05
4.10199e-05
4.06565e-05
4.0364e-05
3.99572e-05
3.96088e-05
3.91635e-05
3.87407e-05
3.82382e-05
3.77534e-05
3.71939e-05
3.664e-05
3.60283e-05
3.54238e-05
3.47584e-05
3.40886e-05
3.33608e-05
3.264e-05
3.18514e-05
3.10713e-05
3.02226e-05
2.93543e-05
2.84457e-05
2.75352e-05
2.64973e-05
2.54808e-05
2.45847e-05
2.36743e-05
2.26388e-05
2.15945e-05
2.05237e-05
1.9478e-05
1.84244e-05
1.7425e-05
1.63434e-05
1.53224e-05
1.43225e-05
1.34089e-05
1.23829e-05
1.14584e-05
1.05429e-05
9.72498e-06
8.74352e-06
7.97473e-06
7.04284e-06
6.25113e-06
5.36416e-06
4.64593e-06
3.80534e-06
3.1294e-06
2.48354e-06
1.90012e-06
1.35405e-06
7.94838e-07
2.99172e-07
1.1123e-07
9.80949e-08
2.64266e-08
1.23218e-08
2.75343e-09
3.82561e-09
5.51299e-09
1.49912e-08
1.74177e-08
7.00098e-08
6.5213e-08
1.25366e-07
1.44879e-07
1.92835e-07
2.22855e-07
2.63856e-07
2.17408e-07
2.75774e-07
2.67013e-07
3.72626e-07
3.12438e-07
3.293e-07
3.287e-07
2.3754e-07
2.72673e-07
2.1274e-07
1.65096e-07
1.34234e-07
1.645e-07
1.86134e-07
2.1338e-07
1.73011e-07
1.79316e-07
1.30627e-07
2.05828e-07
1.42108e-07
2.67627e-07
2.2388e-07
3.32568e-07
1.59696e-07
2.43476e-07
1.44066e-07
2.8319e-07
6.26326e-07
2.50214e-07
1.9044e-07
1.81513e-09
2.14135e-06
1.3862e-06
7.71504e-07
4.2175e-07
3.40682e-08
1.6703e-08
2.02756e-09
1.47682e-09
6.5291e-10
4.67103e-09
7.46064e-10
7.2972e-11
6.86266e-10
7.58979e-09
1.83721e-10
1.05313e-11
2.19464e-10
2.99699e-09
1.00767e-09
1.93362e-09
9.61812e-10
3.01106e-09
7.42116e-10
1.24245e-09
3.97401e-10
6.40905e-10
1.1106e-09
1.03448e-09
6.14373e-10
5.8345e-10
1.15829e-10
4.16024e-10
1.05215e-10
1.2566e-09
7.57441e-11
6.54211e-09
5.99257e-09
1.07358e-07
7.35134e-09
2.41134e-07
1.26115e-08
4.78646e-07
1.84432e-07
1.07615e-06
1.05775e-06
1.96163e-06
2.14232e-06
3.03436e-06
3.26728e-06
4.21816e-06
5.06355e-06
6.15606e-06
7.0126e-06
7.72508e-06
8.50975e-06
9.37066e-06
1.01217e-05
1.10146e-05
1.1503e-05
1.23147e-05
1.28248e-05
1.36566e-05
1.39599e-05
1.49836e-05
1.4984e-05
1.61565e-05
1.58833e-05
1.72894e-05
1.73717e-05
2.24718e-05
2.69964e-05
3.30878e-05
4.1021e-05
5.07495e-05
5.88557e-05
6.59124e-05
7.14286e-05
7.61235e-05
7.98792e-05
8.30507e-05
8.56575e-05
8.79023e-05
8.97795e-05
9.14151e-05
9.28765e-05
9.42105e-05
9.51571e-05
9.58497e-05
9.70754e-05
9.84449e-05
9.90866e-05
9.9153e-05
9.96295e-05
0.000100408
0.000100847
0.000100814
0.000100822
0.000100856
0.000100867
0.000100711
0.00010053
0.000100214
9.99058e-05
9.94848e-05
9.91398e-05
9.86381e-05
9.82252e-05
9.76382e-05
9.71933e-05
9.65705e-05
9.6122e-05
9.5487e-05
9.50559e-05
9.44195e-05
9.39986e-05
9.33713e-05
9.2967e-05
9.2375e-05
9.19953e-05
9.14203e-05
9.10196e-05
9.046e-05
9.009e-05
8.96316e-05
8.93109e-05
8.89033e-05
8.85772e-05
8.82223e-05
8.79322e-05
8.76847e-05
8.74699e-05
8.73336e-05
8.71768e-05
8.7147e-05
8.7086e-05
8.72397e-05
8.73795e-05
8.77947e-05
8.81697e-05
8.88531e-05
8.94801e-05
9.04599e-05
9.13722e-05
9.26609e-05
9.38487e-05
9.5416e-05
9.68323e-05
9.86005e-05
0.000100126
0.000102074
0.000103736
0.000105923
0.000107793
0.000110745
0.000114127
0.000120808
0.000130884
0.000149141
0.000172483
0.000195628
0.000215679
0.00023199
0.000236381
0.000231212
0.000194447
0.000147044
4.47244e-05
9.09885e-06
1.9829e-06
5.75174e-07
3.54396e-07
3.2629e-07
1.34689e-07
1.74956e-08
1.48179e-09
1.70824e-08
8.86901e-08
6.35316e-08
3.45648e-08
3.63358e-08
3.21801e-08
4.06267e-08
2.85912e-08
3.59805e-08
3.14622e-08
3.25989e-08
2.87248e-08
2.89565e-08
3.41643e-08
3.08696e-08
3.53003e-08
3.03262e-08
3.75076e-08
3.06955e-08
3.51127e-08
3.18433e-08
5.99206e-08
9.56796e-08
2.78819e-08
2.13076e-09
1.00942e-08
9.35729e-08
2.75234e-07
3.21951e-07
3.45065e-07
3.68115e-07
4.16746e-07
5.93403e-07
2.84208e-06
1.12899e-05
2.78822e-05
3.79328e-05
4.05803e-05
4.35866e-05
4.4368e-05
4.48153e-05
4.51035e-05
4.50572e-05
4.52746e-05
4.51115e-05
4.53916e-05
4.5208e-05
4.55061e-05
4.535e-05
4.56331e-05
4.55143e-05
4.57647e-05
4.56798e-05
4.58875e-05
4.58396e-05
4.60112e-05
4.59802e-05
4.61247e-05
4.6108e-05
4.62244e-05
4.62094e-05
4.63015e-05
4.6282e-05
4.6353e-05
4.63279e-05
4.63809e-05
4.63486e-05
4.63582e-05
4.6334e-05
4.63028e-05
4.62739e-05
4.62836e-05
4.62516e-05
4.61547e-05
4.60487e-05
4.59585e-05
4.58844e-05
4.57614e-05
4.56556e-05
4.54989e-05
4.53519e-05
4.5143e-05
4.49833e-05
4.47557e-05
4.45455e-05
4.42744e-05
4.40402e-05
4.3721e-05
4.3445e-05
4.30906e-05
4.27762e-05
4.23782e-05
4.20238e-05
4.15752e-05
4.11672e-05
4.06546e-05
4.01762e-05
3.9612e-05
3.90478e-05
3.84172e-05
3.77902e-05
3.70931e-05
3.63811e-05
3.56129e-05
3.4841e-05
3.40082e-05
3.31614e-05
3.22575e-05
3.13542e-05
3.03783e-05
2.9417e-05
2.83718e-05
2.73136e-05
2.62156e-05
2.51208e-05
2.38482e-05
2.26122e-05
2.15395e-05
2.04868e-05
1.9278e-05
1.8069e-05
1.68239e-05
1.56263e-05
1.44201e-05
1.32887e-05
1.2051e-05
1.08965e-05
9.74427e-06
8.67765e-06
7.43336e-06
6.34912e-06
5.25925e-06
4.37063e-06
3.30579e-06
2.66211e-06
1.77496e-06
1.2357e-06
4.5471e-07
3.35748e-07
2.5988e-08
5.51623e-08
7.53451e-09
2.33296e-08
1.79878e-09
1.21469e-08
8.64818e-10
1.77904e-09
6.32925e-10
3.0224e-09
5.28602e-11
4.86331e-09
3.1543e-10
2.85769e-08
2.49147e-09
5.90487e-08
3.451e-08
1.25623e-07
7.66727e-08
2.43105e-07
1.21831e-07
3.31468e-07
1.77007e-07
3.07387e-07
1.97522e-07
3.38058e-07
2.94905e-07
3.74096e-07
2.55999e-07
3.18459e-07
1.44391e-07
2.95003e-07
1.39888e-07
2.13289e-07
1.15368e-07
2.43215e-07
1.3797e-07
2.15632e-07
8.08605e-08
7.60217e-08
4.50361e-08
1.66883e-07
2.24273e-07
4.25006e-07
3.20785e-07
2.70633e-07
2.02617e-07
3.04103e-07
5.16853e-07
3.48907e-07
4.52684e-07
7.76721e-08
1.18772e-07
4.8224e-08
1.67071e-06
1.13095e-06
7.35156e-07
2.69665e-07
1.25259e-08
2.84312e-08
4.50334e-09
1.05556e-08
1.58818e-09
5.86928e-09
3.9855e-10
2.05483e-09
5.96116e-10
3.84303e-09
1.06492e-10
1.16115e-09
1.21611e-10
1.31486e-09
1.88116e-11
4.40684e-10
9.1593e-12
1.01145e-09
1.10538e-10
3.45659e-09
3.45178e-10
4.57427e-09
1.7818e-10
2.64317e-09
2.51709e-11
1.66791e-09
3.44789e-12
2.1591e-09
2.00037e-12
2.57861e-09
1.69792e-13
1.90337e-09
1.48865e-14
1.26817e-09
5.25981e-12
2.65208e-09
4.51964e-11
4.47369e-09
1.66045e-10
9.69313e-09
2.96873e-09
7.05284e-07
1.3321e-08
9.14669e-07
1.81162e-07
9.23616e-07
6.21895e-07
1.73584e-06
2.0578e-06
2.68691e-06
2.82376e-06
4.01952e-06
4.52253e-06
6.00204e-06
6.25534e-06
7.72448e-06
8.00754e-06
9.59866e-06
9.56522e-06