/*--------------------------------*- C++ -*----------------------------------*\
| =========                 |                                                 |
| \\      /  F ield         | OpenFOAM: The Open Source CFD Toolbox           |
|  \\    /   O peration     | Version:  v2006                                 |
|   \\  /    A nd           | Website:  www.openfoam.com                      |
|    \\/     M anipulation  |                                                 |
\*---------------------------------------------------------------------------*/
FoamFile
{
    version     2.0;
    format      ascii;
    class       volScalarField;
    location    "220";
    object      ducSensor;
}
// * * * * * * * * * * * * * * * * * * * * * * * * * * * * * * * * * * * * * //

dimensions      [0 0 0 0 0 0 0];


internalField   nonuniform List<scalar> 
93840
(
0
0.00630707
0.0121096
0
0.0195607
0.00191418
0.0180579
0
0.0385809
0
0.0810052
0
0.0419337
0
0.0188709
0.0222537
0.024691
0
0.047144
0.234502
0
0
0
0.0028941
0.0049517
0
0
0
0
0
0
0.0177926
0.00405919
0
0
0
0
0
0
0
0
0
0
0
0
0
0
0
0
0
0
0
0
0
0
3.40025e-05
0
0
3.55265e-05
0.000768301
0
0
0
0
0
8.2738e-05
0.000203523
0
0
0
0.000123118
1.74167e-05
0
7.37924e-05
0
0.000195365
0.000205911
0.000181631
0.00015673
0.000166475
0.000187235
0.00021577
0.000238855
0.000264089
0.000250353
0.000262458
0.00025991
0.000263757
0.000277164
0.000316633
0.000352595
0.000347253
0.000340851
0.00034923
0.000371542
0.0003861
0.000383782
0.000388878
0.000406773
0.000417753
0.000411959
0.000413393
0.000572812
0.000710426
0.000425922
0.000234022
0.000373291
0.000572076
0.000584022
0.000564066
0.000536951
0.000514799
0.000559983
0.000576365
0.0005372
0.000487006
0.000470712
0.000409623
0.000312129
0.000268239
0.000183329
6.32109e-05
0
0
0
0
0
0
0
0
0
0
0
0
0
0
0
0
0
0
0
0
0
0
0
0
0
0
0
0
0
0
0
0
0
0
0
0
0
0
0
0
0
0
0
0
0
0
0
0
0
0
0
0
0
0
0
0
0
0
0
0
0
0
0
0
0
0
0.00364852
0
0
0
0
0
0
0
0
0
0
0
0.000842587
0.000694683
0.000366355
0.000732932
0.000337291
0.000960411
0.000962695
0.0010669
0.000862054
0.000668894
0.000540212
0.000406464
0.000383238
0.000160046
0.000142649
0.000159424
0.000431166
1.21679e-06
0.000249295
0
0
0.000225964
0.000187413
0.000123505
0.000317187
0.000158729
0.000115684
0.000164985
0.00018664
8.64838e-05
0
0
0
0
0
0
0
0
0
0
0
8.54606e-06
0
0
0
0
0
0
0.0018118
0.00574661
0.0101203
0.0126113
0.0137661
0.00155785
0.000621394
0.000252496
0.000419995
0.000515676
0.000606398
0.000580925
0.000625007
0.0006492
0.000701039
0.000754669
0.000897958
0.000916628
0.000977428
0.00122591
0.00142763
0.00126164
0.00123403
0.00153138
0.00204805
0.00209128
0.00193686
0.00219341
0.00296591
0.00363297
0.00450638
0.00633014
0.0115565
0.0773749
0.0139836
0.00641858
0.00434914
0.00303576
0.00256065
0.00194911
0.00179786
0.0014226
0.00136582
0.0010812
0.00112036
0.000872945
0.000999016
0.000791902
0.000959656
0.000774235
0.000952533
0.000761574
0.000942626
0.000726066
0.000912332
0.000670143
0.000856369
0.000579885
0.000766946
0.00045423
0.000635506
0.000322986
0.000505814
0.000121371
0.000333466
0
8.07099e-05
0
0
0
0
0
0
0
0
0
0
0
0
0
0
0
0.0263718
0
0
0.0674716
0.0441132
0
0
0
0
0
0
0
0
0
0
0
0
0
0.19752
0.045204
0
0.0175593
0
0.0243569
0
0.05664
0
0.0885014
0
0.088627
0.00752715
0.0581436
0.0108701
0.0120032
0
0.0491501
0.0213617
0
0
0
0
0
0.00561627
0
0
0.0371768
0
0
0
0.00657819
0
0
0
0.100302
0
0.110861
0.0358779
0.235071
0
0.0238465
0.0274706
0.0357289
0.0402031
0.0810402
0.269087
0.133188
0.0676567
0.0176179
0
0
0
0
0
0
0
0
0
0
0
0
0
0
0
0
0
0
0
0
0
0
0
0
0
0.00468281
0
0
0.00924144
0.0129675
0
0
0
0.000662506
0.000533958
0.0029614
0.00422949
0.00108932
0
0.00113122
0.00282539
0.000546447
0
0.00103398
0.000599128
0.00197993
0.00242995
0.00146331
0.00116769
0.00132011
0.0016246
0.00174523
0.00168647
0.00166357
0.00164397
0.00168916
0.00168267
0.00178701
0.00185005
0.00186351
0.00188671
0.00180647
0.00173089
0.0017417
0.00184801
0.00192945
0.00193218
0.00192214
0.00195139
0.00199085
0.00198591
0.00189333
0.00230766
0.00313517
0.00264975
0.00137556
0.00202218
0.00297692
0.00305528
0.00301489
0.0028467
0.00272511
0.00295002
0.00311423
0.00301159
0.00279185
0.00270991
0.00199583
0.000977685
0.000214782
0
0
0
0
0
0
0
0
0
0
0
0
0
0
0
0
0
0
0
0
0
0
0
0
0
0
0
0
0
0
0
0
0
0
0
0
0
0
0
0
0
0
0
0
0
0
0
0
0
0
0
0
0
0.0297313
0.0461898
0
0.1385
0.254854
0.144431
0.371895
0.126066
0.13854
0
0.227376
0
0
0
0
0
0
0
0
0
0
0
0
0
0
0
0
0.0395552
0.00318407
0.00649044
0
0.00264519
0.00429814
0.00599416
0.00633999
0.00543464
0.00414279
0.00122032
0
0
0
0
0
0
0.00117338
0
0
0
0
0
0
0
0
0
0
0
0
0
0
0
0
0
0
0
0
0.000245923
0
0
0
0
0
0
0
0
0.000919097
0.0180316
0.0412912
0.0666062
0.033239
0
0.00153375
0.00276207
0.00383795
0.00384417
0.00441562
0.0039759
0.00393729
0.00327141
0.0029145
0.00226948
0.001963
0.00152021
0.00100604
0.000571774
0
0
0
8.99856e-05
0
0
0
0
0
0
0
0
0
0
0
0
0
0
0
0
0
0
0
0
0
0
0
0
0
0
0
0
0
0
0
0
0
0
0
0.000365828
0
0.00106125
0.000520159
0.00206455
0.0013618
0.00342597
0.00278223
0.00469955
0.00431614
0.00671947
0.0065033
0.0105663
0.010687
0.0166928
0.0173454
0.0198592
0.0222144
0.0259492
0.029128
0.0523335
0.0230222
0.095094
0.0880881
0.13154
0.0172806
0.135298
0.0608103
0.568799
0
0.169923
0.0445186
0.0465966
0.0327225
0.0235179
0.0135259
0.00703475
0.0039345
0.0129573
0.0237159
0.0228485
0
0.198428
0
0.0912949
0
0
0
0
0.051329
0.0161827
0
0.0122929
0.0507925
0
0.0487827
0
0.00158533
0
0.036137
0.0480008
0.040623
0.0328455
0.104309
0.0219066
0
0.0100847
0
0
0.126709
0
0.0850124
0
0.0436807
0
0
0.0202082
0
0
0.192866
0
0.211505
0
0.0375334
0.00509295
0.0110524
0.0208042
0
0
0.00888703
0
0
0
0.331403
0
0
0
0
0
0
0
0
0
0
0
0
0
0
0
0
0
0
0
0
0
0
0
0
0
0
0
0.00308786
0
0
0
0
0
0.000185667
0.0017384
0
0
0
0.000880477
0.0005916
0.000149489
0
0.000985687
0.00272529
0.00278345
0.00233058
0.00211411
0.00229949
0.00255578
0.00281923
0.00303989
0.00334597
0.00323041
0.00336264
0.00334784
0.00341187
0.00353719
0.00391613
0.00427621
0.00421475
0.00412423
0.00423331
0.00449974
0.00467991
0.00464292
0.00463051
0.00475603
0.00488431
0.00485174
0.00477048
0.00635758
0.0084293
0.00595109
0.00263885
0.00457353
0.00656473
0.00700539
0.00679243
0.00660332
0.00639207
0.00696609
0.00737928
0.00693741
0.00649602
0.00652098
0.00552418
0.00433958
0.00294962
0.00286818
0.000579445
0
0
0
0
0
0
0
0
0
0
0
0
0
0
0
0
0
0
0
0
0
0
0
0
0
0
0
0
0
0
0
0
0
0
0
0
0
0
0
0
0
0
0
0
0
0
0
0
0
0
0
0
0
0
0
0
0
0
0
0
0
0
0
0
0
0
0
0
0
0
0
0
0
0
0
0
0
0
0
0.142871
0.0692566
0.0284043
0.0400469
0.0623716
0.0452338
0.0343345
0.0310035
0.0239279
0.015888
0.00701758
0.00641049
0
0
0.000655531
0.00621513
0
0.000171873
0
0
0.00109497
0.00120935
0.000424467
0.0010288
0
0
0
0.00120153
0
0
0
0
0
0
0
0
0
0
0
0
0
0
0
0
0
0
0
0.0333815
0.0785207
0.0946547
0.080052
0.0203472
0.00696666
0.0051921
0.00422913
0.00425092
0.00407274
0.00421605
0.00414332
0.00414548
0.0040236
0.00405165
0.00426004
0.0043901
0.00416461
0.00439934
0.00449047
0.00455262
0.00404221
0.00373879
0.00411277
0.00450894
0.00391204
0.00359268
0.00357049
0.0037743
0.00364168
0.00349791
0.00329016
0.00328166
0.00321514
0.00315381
0.00299964
0.00304094
0.00288493
0.00292364
0.00270851
0.0027762
0.00254884
0.00257588
0.0023086
0.0024481
0.00214385
0.002479
0.00223855
0.0026791
0.00247983
0.00297403
0.00274174
0.00323213
0.00292652
0.00344573
0.00302642
0.00350417
0.0029187
0.00338423
0.00266619
0.00309518
0.00236957
0.00279583
0.00182855
0.00240111
0.00134937
0.00145947
0.000475765
0.000564802
0
0.000121282
0
0
0
0
0
0
0
0
0
0
0.0790031
0.0133806
0
0.1712
0
0.520957
0
0
0
0
0
0
0
0
0
0
0
0
0
0.18147
0
0.160226
0
0.00334813
0
0
0.00140811
0.00241794
0.0100696
0.0486976
0
0.00945079
0
0.00478563
0.0202319
0
0
0
0.0250158
0.01187
0
0
0.0185934
0.0322283
0.00238293
0
0.0979971
0
0.0954491
0
0.0629875
0
0
0
0
0
0.128781
0
0.221254
0
0.126232
0
0.00636989
0.0238823
0.0183731
0.0249478
0.0219331
0.00199015
0.00146914
0
0
0
0
0
0
0
0
0
0
0
0
0
0
0
0
0
0
0
0
0
0
0
0
0
0
0
0
0
0
0
0
0
0
0
0
0.000700216
0.000507112
0
0.00145887
0.00138526
0
0
0
0.00212888
0.00301347
0.00372181
0.00242802
0.0023871
0.00257254
0.00297439
0.00319308
0.00335308
0.00355859
0.00346521
0.00358232
0.00355521
0.00365789
0.00378996
0.00410528
0.00441361
0.00432151
0.00422168
0.0043099
0.00458148
0.00476415
0.0047276
0.00471198
0.00483396
0.00498156
0.004999
0.00491004
0.00650331
0.00855512
0.00621947
0.00283503
0.00481241
0.00693796
0.00753315
0.00741046
0.00729851
0.00712073
0.00782788
0.00824571
0.00790772
0.00725021
0.0073208
0.00640413
0.00497338
0.0033434
0.00273005
0.000680524
0
0
0
0
0
0
0
0
0
0
0
0
0
0
0
0
0
0
0
0
0
0
0
0
0
0
0
0
0
0
0
0
0
0
0
0
0
0
0
0
0
0
0
0
0
0
0
0
0
0
0
0
0
0
0
0
0
0.0378665
0.09729
0
0
0
0
0
0
0
0
0
0
0
0
0
0
0
0
0
0
0
0.139233
0.718593
0.876909
0.313715
0.2838
0.42639
0.40613
0.313832
0.201204
0.219959
0.0539308
0.0585322
0.029307
0.00992877
0.00547255
0.00670345
0.00621355
0
0
0
0
0
0
0
0
0
0
0
0.000762054
0
0
0
0
0
0
0
0
0
0
0
0
0
0
0
0
0
0
0.00062636
0.0358294
0.118819
0.113208
0.0851278
0.0203493
0.00612661
0.00561484
0.00530182
0.00531749
0.00520971
0.00531579
0.00517162
0.00496628
0.00475908
0.00463713
0.00461352
0.00458979
0.0042225
0.00417094
0.00391319
0.00364758
0.0034149
0.00337922
0.00327506
0.00318739
0.00273817
0.00271753
0.00257935
0.00246204
0.0021872
0.00209461
0.00192281
0.00185575
0.00164889
0.00170003
0.00153984
0.00156068
0.00144611
0.0014798
0.00127398
0.00130519
0.00109142
0.00106754
0.000814333
0.000915383
0.000637097
0.000956731
0.000781869
0.00121061
0.00109436
0.00158454
0.00146988
0.00194356
0.00175599
0.00224631
0.00196395
0.00242859
0.00201822
0.00250649
0.00199401
0.00247611
0.00203689
0.00253356
0.0018045
0.00245446
0.00174323
0.00221995
0.00211115
0.00289111
0.00199649
0.00234459
0.000889515
0.00167937
0.000501701
0.0034655
0.00266589
0.00262713
0.0128053
0.00716806
0
0
0.0211962
0.00930805
0
0
0
0.37713
0
0.0435554
0.00605965
0.0265328
0.0173925
0.013858
0.00420386
0
0
0
0
0
0
0.115598
0
0.0605645
0
0.0183125
0
0
0
0
0.0235481
0.0410144
0
0.0515901
0
0
0.00332176
0
0
0
0.00662435
0
0.0171338
0
0
0
0.053818
0
0.0557966
0
0.0484406
0
0.0412045
0
0.0152462
0
0
0.105467
0
0.0656744
0.194296
0
0.0412608
0.0181829
0.00779648
0.0277627
0.00170049
0
0
0
0
0
0.00535741
0
0
0
0
0
0
0
0
0
0
0
0
0
0
0
0
0
0
0
0
0
0
0
0
0
0
0
0
0
0.000460104
0.00125826
0
0
0
0
0.000246467
0.00233192
0.00135151
0
0.000982713
0.000843988
0
0.00231306
0.00350476
0.00356702
0.00268234
0.002691
0.00305982
0.0033185
0.00356074
0.00370941
0.00397212
0.00385213
0.00398943
0.00395416
0.00406494
0.00423822
0.0046221
0.00495053
0.00485197
0.00474322
0.00484754
0.00516264
0.00537746
0.00535376
0.00537947
0.00556518
0.00576914
0.00578073
0.0056614
0.00751444
0.0100364
0.00761823
0.00331337
0.00543222
0.00863481
0.00899908
0.00922392
0.00914508
0.00914442
0.0102237
0.0107556
0.0104021
0.00948013
0.00971461
0.00878825
0.00675434
0.00506719
0.00429169
0.000332821
0
0
0
0
0
0
0
0
0
0
0
0
0
0
0
0
0
0
0
0
0
0
0
0
0
0
0
0
0
0
0
0
0
0
0
0
0
0
0
0
0
0
0
0
0
0
0
0
0
0
0
0
0
0
0
0
0
0.592119
0.104118
0.457235
0
0
0
0
0
0
0
0
0
0
0
0
0
0
0
0
0
0
0
0.2475
0.491621
0.721127
0.706065
0.523736
0.835902
0.819548
0.680251
0.853198
0.278013
0.407724
0.07455
0.315185
0.0233777
0.207791
0.0105704
0.0899007
0.0057373
0
0
0
0
1.18448e-05
0.0117416
0.00144521
0
0.000166272
0.00295387
0
0
0
0
0
0
0
0
0
0
0
0
0
0
0
0
0
0
0
0.0350395
0.153539
0.145406
0.0923639
0.0263964
0.00702226
0.00609469
0.00580266
0.00579452
0.00566347
0.00582265
0.00561017
0.00542493
0.00523438
0.00521367
0.00512647
0.00515033
0.00485318
0.00475098
0.00455719
0.00426409
0.00394756
0.00394716
0.00380613
0.0037231
0.00326374
0.00320833
0.00307024
0.00296184
0.00264694
0.00253919
0.00238422
0.00229862
0.00212095
0.00216587
0.00199393
0.00199663
0.00186229
0.0018722
0.00165791
0.00166745
0.00144272
0.00138683
0.00112656
0.00121373
0.000937583
0.00124075
0.00108271
0.00148449
0.00139981
0.00185133
0.00177614
0.00221795
0.00207308
0.00250923
0.00227751
0.00268038
0.00233219
0.00274185
0.00229323
0.00269333
0.00232678
0.00271871
0.00208979
0.00265021
0.00203567
0.00238757
0.00226781
0.00284925
0.00199942
0.00243911
0.00155598
0.00196631
0.00116094
0.00327421
0
0.00241998
0.0188455
0.00766693
0
0
0
0.00274334
0.0396209
0.0371168
0
0.120895
0
0.096432
0.0022257
0.0307429
0.0277976
0.0244472
0.0128038
0.00788244
0
0
0
0
0
0.120536
0.04215
0.00671624
0.0333595
0
0
0
0.0460519
0
0.0513787
0
0.0468002
0.0163275
0.0371498
0
0.0117255
0
0.0145999
0.0495508
0.0378541
0
0.00731482
0
0
0
0.0394422
0
0.0589591
0.0498346
0.0583326
0
0.0146293
0.00737894
0.00217514
0.0313773
0
0.0388759
0
0.088419
0.193423
0
0.215335
0
0.00026435
0.0233892
0.0172415
0.024394
0.0191646
0
0
0
0
0
0
0
0
0
0
0
0
0
0
0
0
0
0
0
0
0
0
0
0
0
0
0
0
0
0
0
0
0
0.0119618
0.00660691
0
0
0
0
0.000599854
0.00660615
0.00136652
0
0
0.000461609
0
0.0029125
0.00325931
0.00368702
0.00262839
0.00294641
0.00333165
0.00366862
0.00373108
0.00396255
0.00422267
0.00416263
0.00430177
0.00428755
0.00443186
0.00462388
0.00503143
0.00542999
0.00533172
0.0052503
0.00539215
0.00577037
0.00604573
0.00606038
0.00611491
0.00633984
0.00656549
0.00661774
0.00667037
0.00916239
0.0120383
0.00828749
0.00419091
0.00702745
0.0103568
0.0112198
0.0117464
0.0120483
0.0123018
0.0139783
0.0149981
0.0143304
0.0135864
0.0139278
0.012784
0.0111977
0.00927089
0.00875199
0.00380429
0
0.00214873
0
0
0
0
0
0
0
0
0
0
0
0
0
0
0
0
0
0
0
0
0
0
0
0
0
0
0
0
0
0
0
0
0
0
0
0
0
0
0
0
0
0
0
0
0
0
0
0
0
0
0
0
0
0.0318872
0.0924736
0
0.227645
0.149865
0
0
0
0
0
0
0
0
0
0
0
0
0
0
0
0
0
0
0.114797
0
0.535856
0.278734
0.777292
0.333684
0.683565
0.453893
0.787251
0.339609
0.8418
0.199984
0.374092
0.1038
0.327979
0.21407
0.321966
0.278149
0.492701
0
0
0
0.0272976
0.395287
0.0390538
0.120051
0.00599385
0.0190231
0.0176667
0.00155405
0
0
0
0
0
0
0
0
0
0
0
0
0
0
0
0
0
0
0.0346837
0.2051
0.202321
0.119896
0.0342006
0.007836
0.0065259
0.00615038
0.00621157
0.00590952
0.00605576
0.00581618
0.00572086
0.00551724
0.00555107
0.00551818
0.00556151
0.00524509
0.00526666
0.00505465
0.00474248
0.00443745
0.00435656
0.00426543
0.00417617
0.00367324
0.00362786
0.0035185
0.00337074
0.00304146
0.00291493
0.00277894
0.00271561
0.0026003
0.00248328
0.00239375
0.0023985
0.00224563
0.002235
0.00202424
0.00200856
0.00177836
0.00169325
0.00142482
0.00149858
0.00123069
0.00151389
0.00138492
0.00175472
0.00170346
0.0021212
0.00208193
0.00247848
0.00238465
0.00277339
0.0025915
0.00294109
0.00264282
0.0029979
0.0025961
0.00291919
0.00261179
0.00293408
0.00245466
0.00297209
0.00236011
0.00248918
0.00226832
0.00264037
0.00238265
0.00340452
0.00253708
0.00329743
0.00348217
0.0022163
0
0
0.00494213
0.00626931
0.00868264
0.00483659
0
0.00102982
0.032245
0.0252758
0
0
0
0.534769
0
0.0226984
0.0222638
0.0273625
0.0147204
0.0096353
0.000376062
0
0
0
0
0.0145719
0
0.114697
0
0
0.00887057
0
0.0316377
0
0.0886488
0
0.0768738
0
0.0884463
0
0.0413844
0.00851312
0
0.00244163
0.0104861
0
0.0139517
0
0.136586
0.0654081
0.0578137
0.137575
0
0.0373938
0.0224875
0.0677308
0.0348022
0.0211844
0
0
0.109134
0
0
0.0665122
0.185089
0
0.181085
0
0.00580443
0.0248193
0.0019255
0
0.00397137
0
0
0
0
0
0
0
0
0
0
0
0
0
0
0
0
0
0
0
0
0
0
0
0
0
0
0
0
0
0
0
0
0
0.016237
0.00426241
0
0
0
0
0
0.00751731
0.00183001
0
0.000343226
0.00106559
0.000221465
0.00223945
0.00365056
0.00329011
0.00268824
0.0032195
0.00376429
0.00385712
0.00404065
0.00414369
0.00452724
0.00442477
0.00461573
0.0046081
0.00476872
0.0050279
0.0055114
0.00592951
0.00584868
0.00577789
0.00595311
0.00640695
0.00675659
0.006831
0.00698003
0.00730534
0.0076231
0.00776666
0.0080362
0.0112197
0.0144367
0.00964022
0.00544377
0.00912305
0.0132344
0.0148178
0.0158048
0.0167658
0.0178318
0.0209561
0.02303
0.022967
0.0233207
0.0252839
0.0261118
0.0238535
0.0255279
0.0178033
0.0148237
0.00205694
0
0
0
0
0
0
0
0
0
0
0
0
0
0
0
0
0
0
0
0
0
0
0
0
0
0
0
0
0
0
0
0
0
0
0
0
0
0
0
0
0
0
0
0
0
0
0
0
0
0
0
0
0
0
0.0862606
0
0.838441
0.29932
0.0611939
0
0
0
0
0
0
0
0
0
0
0
0
0
0
0
0
0
0
0
0.521409
0.276466
0.251409
0.284934
0.683864
0.493494
0.483943
0.771146
0.399039
0.595659
0.34426
0.309095
0.00174601
0.266082
0.0515185
0.574357
0.224554
0.121126
0
0
0
0.0910471
0.193998
0.282338
0.316092
0.200571
0.152261
0.0630538
0.349315
0
0
0
0
0
0
0
0
0
0.00160258
0
0
0
0
0
0
0
0
0.0367483
0.256555
0.273503
0.145384
0.0437676
0.00872322
0.0066342
0.0063639
0.00634327
0.00608142
0.00618851
0.00590573
0.00585929
0.00571013
0.00585246
0.00576477
0.00584148
0.0056435
0.00561288
0.00545474
0.00516974
0.0047638
0.00473275
0.00461779
0.00452247
0.00404452
0.00397673
0.00385887
0.00371866
0.00336472
0.00322679
0.0031146
0.00303931
0.00286047
0.00284431
0.00274794
0.00275549
0.00259808
0.00255265
0.00235159
0.00231275
0.00208112
0.00197803
0.00172264
0.00177408
0.00152107
0.00178498
0.00167316
0.00201627
0.00199197
0.00236454
0.00236716
0.00272487
0.00266807
0.00301054
0.00286337
0.00316973
0.00291414
0.00322359
0.00286403
0.00315683
0.00287644
0.00316322
0.00272644
0.00318056
0.00259991
0.00273103
0.00255065
0.00287403
0.00271736
0.00342499
0.00226954
0.0033932
0.00367743
0.00257181
0
0
0
0.00634776
0.0186476
0.00678495
0
0
0.0271435
0.016594
0
0
0
0.353364
0.0886636
0.0423854
0.0224521
0.0324675
0.0224825
0.0165761
0.00610638
0
0
0
0
0
0
0.193443
0
0
0
0.0536098
0.0177013
0
0.0276482
0
0.0726568
0
0.0167924
0.0349423
0
0
0.0131481
0.0318236
0.0301425
0
0.0402005
0.0269503
0
0.00829281
0
0.0880485
0
0.051731
0
0.016821
0
0.0603972
0
0.0073082
0
0.04473
0.0530252
0.00185525
0.197261
0
0.262689
0.11396
0.0141314
0.0189936
0.0202011
0.00889604
0.0104109
0
0
0
0
0
0
0
0
0
0
0
0
0
0
0
0
0
0
0
0
0
0
0
0
0
0
0
0
0.00420963
0
0
0
0
0.0225858
0.00781045
0
0
0
0
0
0.0100848
0
0
0.000272012
0.00163424
0.00112357
0.00197682
0.00321152
0.00227428
0.0029028
0.00338391
0.0041683
0.00418583
0.00412695
0.00435998
0.00476343
0.00474442
0.00494204
0.00498173
0.00520627
0.00549202
0.00602802
0.00653703
0.00649262
0.00649017
0.00676533
0.00734413
0.00781232
0.00795707
0.00815812
0.00861285
0.00918571
0.00960815
0.0100255
0.0137218
0.0181983
0.0134317
0.00814505
0.0123902
0.0187453
0.0218146
0.0247529
0.0279272
0.03184
0.039779
0.0484268
0.0513527
0.0547541
0.0794917
0.0605366
0.0987274
0.0472838
0.141906
0
0.0120323
0
0
0
0
0
0
0
0
0
0
0
0
0
0
0
0
0
0
0
0
0
0
0
0
0
0
0
0
0
0
0
0
0
0
0
0
0
0
0
0
0
0
0
0
0
0
0
0
0
0
0
0
0
0
0.251733
0
0.175006
0.727314
0.954715
0
0
0
0
0
0
0
0
0
0
0
0
0
0
0
0
0
0
0
0
0.148072
0.411868
0.246125
0.553535
0.42339
0.568709
0.614731
0.51791
0.514347
0.410117
0.227351
0
0.261904
0.281654
0.332471
0.414748
0.171081
0
0
0
0.0301722
0.325462
0.235162
0.33034
0.120134
0.18677
0.086712
0.295405
0
0
0
0
0
0
0
0.106851
0
0
0.0181004
0
0
0
0
0
0
0
0.0614678
0.369635
0.386851
0.1999
0.0645212
0.0102002
0.00727732
0.00664808
0.00654505
0.00617802
0.00609179
0.00584311
0.00594443
0.00581408
0.00594127
0.00594045
0.00607858
0.00581715
0.00594268
0.00579945
0.00546547
0.00512204
0.00500322
0.00493791
0.00484549
0.0043495
0.00426828
0.00420211
0.00401401
0.0036368
0.0034943
0.00339842
0.00332822
0.00328999
0.00311009
0.00305975
0.00306748
0.00290444
0.00284522
0.00264481
0.00258886
0.00235817
0.00223219
0.00198198
0.00203165
0.00177868
0.00203795
0.00194906
0.00225725
0.00226187
0.00259707
0.00262573
0.00294554
0.00292359
0.00322
0.00312643
0.00337738
0.00317695
0.00344273
0.00311879
0.00338381
0.00313212
0.00338044
0.0029673
0.00337701
0.00287126
0.0030532
0.00289855
0.00315505
0.00299433
0.00323348
0.00229666
0.0034581
0.00323012
0.0042567
0.00396268
0.000970869
0
0.00278716
0.00828076
0.00554664
0
0
0.0103735
0.0126239
0.00398827
0
0
0.0154975
0.0202877
0.023539
0.0257542
0.0357397
0.024888
0.0187731
0.00863894
0.00145555
0
0
0
0
0
0.186453
0
0
0
0
0.0527633
0.0182883
0
0
0.0951114
0
0.0594043
0
0.0493601
0
0.00025622
0.0449418
0
0.01709
0.0221146
0
0
0.00650209
0.051304
0.0501825
0
0.118469
0
0.0802043
0
0.0809167
0
0.00951682
0
0
0.1855
0
0.190333
0
0.197982
0
0
0.0145053
0.0010384
0
0
0
0
0
0
0
0
0
0
0
0
0
0
0
0
0
0
0
0
0
0
0
0
0
0
0
0
0
0
0.00116012
0
0
0
0
0.0157496
0.00155917
0
0
0
0
0
0.00710359
0
0
0
0.00146598
0.00252395
0.000996129
0.00382395
0.00198252
0.00293281
0.00379471
0.00444732
0.00446214
0.00444811
0.00467073
0.00514684
0.00510931
0.00539327
0.00546166
0.00574117
0.00616046
0.00681326
0.00739112
0.00742261
0.00749439
0.00787642
0.00864087
0.00930864
0.00963313
0.0100959
0.0108655
0.0118001
0.0126899
0.0138246
0.019136
0.0258567
0.020158
0.0134614
0.0216513
0.0353234
0.04085
0.051417
0.0624352
0.0811948
0.118981
0.137968
0.163123
0.172147
0.263142
0.174379
0.2366
0.11025
0.223691
0
0.0787252
0
0
0
0
0
0
0
0
0
0
0
0
0
0
0
0
0
0
0
0
0
0
0
0
0
0
0
0
0
0
0
0
0
0
0
0
0
0
0
0
0
0
0
0
0
0
0
0
0
0
0
0
0
0
0.387986
0.274538
0.303671
0
0.270055
0
0
0
0
0
0
0
0
0
0
0
0
0
0
0
0
0
0
0
0
0
0.0388277
0.25374
0.35167
0.43507
0.463253
0.720489
0.63543
0.450621
0.544004
0.115781
0.0126282
0.0380587
0.405539
0.219436
0.421287
0.0591595
0
0
0.111977
0
0.337123
0.238209
0.286244
0.19642
0.231439
0.106044
0.240904
0
0
0
0
0
0.0904917
0
0
0
0
0
0
0.0472232
0
0
0
0
0
0.173676
0.523742
0.520713
0.286205
0.0917492
0.0108423
0.00763828
0.00711497
0.00662723
0.00602751
0.00592225
0.0056847
0.00582526
0.00576501
0.00604132
0.00599408
0.00613842
0.00606399
0.00612637
0.00602412
0.00578743
0.0053093
0.00526528
0.00520962
0.0050692
0.004626
0.00454998
0.00443881
0.00427047
0.00388451
0.00372122
0.00364856
0.00357957
0.003403
0.0033979
0.00333517
0.00335164
0.00317281
0.00309439
0.00290214
0.00282704
0.00259776
0.00247227
0.00222686
0.00227199
0.00204313
0.00227383
0.00220514
0.00248336
0.00250405
0.00280336
0.00286372
0.00314033
0.00314897
0.00340017
0.0033337
0.00356243
0.00338062
0.00361915
0.00333266
0.00357156
0.00335078
0.00356972
0.00321474
0.00358707
0.0031025
0.00325401
0.00305849
0.0033535
0.00328352
0.00350617
0.00286235
0.00355775
0.00281797
0.00478537
0.00412375
0.00164556
0.00141891
0.00190559
0.00389917
0.00538908
0.00700719
0.00141997
0
0.00327782
0.0090004
0.00470644
0
0.00375243
0
0.272198
0.0360944
0.042081
0.0323738
0.0251692
0.0142261
0.00538721
0.00248201
0
0
0
0
0.179482
0
0
0
0
0.00738446
0.0844379
0.0217817
0.0984865
0
0.0369048
0
0
0.0476485
0
0
0.0191583
0.0043862
0
0.0149799
0.0203165
0.007922
0.000822468
0
0
0.0398816
0
0.0446586
0
0
0
0
0.0544016
0
0
0.190816
0
0.182055
0.0515935
0.233009
0
0.186223
0
0.0234215
0.000842618
0
0
0
0
0
0
0
0
0
0
0
0
0
0
0
0
0
0
0
0
0
0
0
0
0
0
0
0
0
0
0
0
0
0
0.00596012
0
0
0
0
0
0
0.00108679
0
0
0.00290081
0.00408854
0.00237055
0.00137137
0.00295591
0.000370821
0.00353799
0.00391251
0.00501885
0.00473011
0.00485288
0.00502655
0.00564968
0.00571223
0.00605759
0.00621775
0.00663071
0.0071337
0.00794817
0.00874062
0.00892203
0.00919031
0.00988217
0.011052
0.0121714
0.0129364
0.0138994
0.0153481
0.0173359
0.0194086
0.0225755
0.034108
0.0509454
0.0426361
0.0301322
0.0612765
0.084083
0.126472
0.152857
0.189573
0.219132
0.294024
0.269719
0.309023
0.295815
0.325244
0.216122
0.250641
0.139604
0.246751
0.0100106
0
0
0
0
0
0
0
0
0
0
0
0
0
0
0
0
0
0
0
0
0
0
0
0
0
0
0
0
0
0
0
0
0
0
0
0
0
0
0
0
0
0
0
0
0
0
0
0
0
0
0
0
0
0
0
0
0.0149724
0.863861
0.622209
0.415539
0
0
0
0
0
0
0
0
0
0
0
0
0
0
0
0
0
0
0
0
0.521752
0
0.0172005
0.166847
0.591895
0.613531
0.467156
0.67002
0.414591
0.530165
0.0868739
0.227954
0
0.542537
0.123946
0.425182
0.249333
0
0
0
0.106607
0.359954
0.293152
0.371712
0.141783
0.234548
0.200354
0.291599
0
0
0
0
0
0
0.22564
0
0
0
0
0
0
0
0
0.0451932
0
0
0.643833
0.887382
0.676339
0.414034
0.145362
0.014535
0.00996639
0.00860629
0.0072906
0.00610793
0.00559089
0.00537156
0.00570555
0.00569347
0.00586848
0.00597576
0.00624378
0.00601882
0.00629456
0.0062549
0.00590423
0.00557098
0.00543732
0.00542967
0.00531044
0.00486888
0.00475928
0.00472974
0.00448443
0.00407932
0.00394054
0.00387359
0.00377666
0.00376384
0.00361544
0.00357136
0.00358923
0.00341782
0.00332157
0.00313639
0.00305323
0.00281582
0.00269174
0.00244963
0.00249576
0.0022691
0.00249461
0.0024483
0.00269967
0.00273666
0.00299604
0.00306848
0.00332089
0.00333648
0.00356529
0.00351262
0.00371076
0.00357055
0.00378211
0.00351725
0.00373074
0.0035423
0.00373933
0.00344606
0.00377269
0.0033055
0.00342631
0.0032101
0.00351628
0.00352949
0.00380391
0.00333457
0.00351226
0.0029178
0.00463649
0.00330526
0.00284196
0.00386908
0.00281156
0.00148833
0.00346638
0.00739225
0.00386757
0
0
0.00625665
0.00618585
0
0.00271021
0
0.144491
0
0.0356511
0.0369757
0.028077
0.0165243
0.00722135
0.00371452
0
0
0
0
0.198449
0
0
0
0
0.0034869
0.0335876
0
0.0843746
0
0.095268
0.0505288
0.0163088
0
0.0362721
0.000515909
0.0223018
0.0151876
0
0.0240847
0.0198546
0.00870435
0.0113188
0
0
0.0147039
0
0.114274
0
0
0
0
0.0292713
0
0.00351431
0.14159
0.0155466
0.165113
0
0.201997
0
0.0168285
0.00607365
0.00319133
0
0
0
0
0
0
0
0
0
0
0
0
0
0
0
0
0
0
0
0
0
0
0
0
0
0
0
0
0
0
0
0
0
0
0
0
0
0
0
0.00203969
0
0
0
0
0
0.000902946
0.00347969
0.00283485
0.00169707
0.00211149
0.00117674
0.00369909
0.00479195
0.00530553
0.00553165
0.00534464
0.0059351
0.00647701
0.00669052
0.00718374
0.00747105
0.00807651
0.00891056
0.0100844
0.0112312
0.0117283
0.012435
0.0137275
0.0158766
0.0183117
0.0206207
0.0239523
0.0293689
0.0350756
0.0423441
0.054925
0.096926
0.141184
0.107023
0.111134
0.172595
0.181553
0.249497
0.272266
0.296701
0.316203
0.361608
0.323636
0.308221
0.256249
0.30025
0.250681
0.224864
0.130652
0.222672
0.00195727
0
0
0
0
0
0
0
0
0
0
0
0
0
0
0
0
0
0
0
0
0
0
0
0
0
0
0
0
0
0
0
0
0
0
0
0
0
0
0
0
0
0
0
0
0
0
0
0
0
0
0
0
0
0
0
0.395123
0.35693
0.798521
0.368744
0.761128
0
0
0
0
0
0
0
0
0
0
0
0
0
0
0
0
0
0
0
0
0
0.326727
0.306058
0.259554
0.382755
0.590761
0.477625
0.517477
0.360676
0.494353
0.0884206
0.0996371
0
0.248492
0.335507
0.274647
0.16493
0
0
0
0.0049084
0.155398
0.442516
0.273238
0.244625
0.119578
0.323531
0.221361
0
0
0
0
0
0
0
0.196857
0.361921
0
0
0
0
0
0
0
0
0
0.663303
0.991685
0.80879
0.560609
0.234527
0.0199036
0.0132709
0.0119822
0.00903702
0.00638146
0.0055245
0.00515237
0.00536249
0.00538107
0.0057593
0.00580677
0.00605202
0.00612761
0.00630567
0.00629397
0.00613228
0.00560522
0.00559908
0.00564879
0.00542061
0.00506814
0.00499691
0.00488002
0.00468424
0.00428746
0.00410514
0.00406749
0.00398885
0.0038269
0.003836
0.00378719
0.00380326
0.00363379
0.0035273
0.00333665
0.00322937
0.00301325
0.00288953
0.00265029
0.00269952
0.00250605
0.00269753
0.00267078
0.0028795
0.00293773
0.00315815
0.00325098
0.00347208
0.00350366
0.0036951
0.00367295
0.00383707
0.00372924
0.00390973
0.00368148
0.0038694
0.00370453
0.00387122
0.00363856
0.00393603
0.00352557
0.00363067
0.00339077
0.00365726
0.00368423
0.00401091
0.00363419
0.00371552
0.00348855
0.00474797
0.00329372
0.00392889
0.00425285
0.00332832
0.00171942
0.00310473
0.00626485
0.0051982
0.00121961
0.00116575
0.00328236
0.00474739
0.00234321
0.00244404
0.00320586
0.0439545
0.146308
0.144123
0.0562286
0.0356453
0.0228834
0.0113862
0.00636977
0.00186296
0
0
0
0.152662
0
0
0.00790752
0
0
0.0131808
0
0.0588165
0
0.0602585
0.0126475
0
0.00550618
0.0137589
0
0.000985292
0
0.0170374
0.014776
0.0205568
0
0.0475252
0
0
0.0477763
0
0.0676281
0
0.0409097
0
0.0413182
0
0
0
0.133437
0
0.14406
0
0.223163
0
0.30684
0
0
0
0
0
0
0
0
0
0
0
0
0
0
0
0
0
0
0
0
0
0
0
0
0
0
0
0
0
0
0
0
0
0
0.0197529
0.00291681
0
0
0
0
0
0
0.00883606
0
0
0
0
0.00598499
0.00591521
0
0.00204544
0.00171319
0.00113787
0.00445484
0.00546447
0.00626793
0.00642703
0.00659745
0.00713455
0.00810577
0.0085656
0.00937202
0.00999311
0.0110871
0.0125187
0.0144988
0.0168384
0.0185488
0.020983
0.0250273
0.0311828
0.0390893
0.0492635
0.0582756
0.0775689
0.0940738
0.11953
0.146337
0.251432
0.290564
0.187891
0.184086
0.243504
0.24295
0.305557
0.313501
0.319948
0.333048
0.375116
0.324562
0.293409
0.274033
0.326699
0.218735
0.236979
0.15431
0.189715
0
0.0148394
0
0
0
0
0
0
0
0
0
0
0
0
0
0
0
0
0
0
0
0
0
0
0
0
0
0
0
0
0
0
0
0
0
0
0
0
0
0
0
0
0
0
0
0
0
0
0
0
0
0
0
0
0
0
0.350214
0.335159
0.635558
0.25548
0.480549
0
0
0
0
0
0
0
0
0
0
0
0
0
0
0
0
0
0
0
0
0
0
0.133159
0.620527
0.273444
0.622757
0.310399
0.591983
0.328815
0.471686
0.113257
0.102797
0.0510987
0.00840283
0.335089
0.126094
0.158791
0
0
0
0
0.0710015
0.278114
0.183316
0.20516
0.102514
0.257662
0.169739
0.055441
0
0
0
0
0
0
0
0
0.284143
0.183333
0
0
0
0
0
0
0
0.545386
0.963441
0.935522
0.704339
0.381369
0.0307897
0.0219582
0.0195387
0.0136459
0.00830164
0.00583026
0.00497135
0.00518896
0.00514892
0.00529703
0.00557828
0.00601547
0.00580575
0.00628456
0.00638905
0.00602802
0.00576817
0.00567037
0.00574465
0.00560144
0.00523483
0.00511261
0.00512511
0.00483444
0.0044142
0.00430533
0.00425491
0.00412238
0.00410887
0.00400395
0.00395586
0.00399216
0.00381953
0.00370097
0.00351484
0.00340808
0.00318482
0.00306915
0.00284498
0.00288531
0.00270498
0.0028851
0.00287438
0.00307233
0.00313439
0.00332531
0.00342333
0.0036211
0.00365049
0.00382614
0.00379421
0.00394417
0.00386242
0.00401567
0.00382451
0.00398274
0.00382658
0.00399853
0.00379284
0.0040594
0.00370322
0.00380608
0.00352761
0.00373923
0.00376829
0.00409451
0.00377841
0.00380787
0.0036839
0.00442614
0.00362137
0.00432342
0.00387509
0.00366105
0.00303075
0.00341492
0.00455904
0.00483262
0.00364741
0.00281063
0.00277384
0.00388456
0.00328497
0.00452343
0.00279606
0.0116652
0
0.314848
0.0438033
0.0341977
0.0271088
0.0141012
0.00758978
0.00442794
0
0
0
0.142978
0
0.0213098
0
0.0258982
0
0
0.0321222
0.0128119
0
0.0273743
0
0
0.0287058
0.0395143
0
0.0244345
0.0211438
0
0.00474434
0
0.0335072
0.0249172
0.0177377
0.092002
0.0674463
0.0618065
0.0208604
0.0640491
0.0487933
0.042892
0.0197451
0
0
0
0.146736
0
0.136097
0
0.216045
0.0306096
0.291391
0
0
0
0
0
0
0
0
0
0
0
0
0
0
0
0
0
0
0
0
0
0
0
0
0
0
0
0
0
0
0
0
0
0
0.0343686
0.0182589
0
0
0
0
0.00307343
0
0.0187535
0
0
0
0
0.00694048
0.00718603
0.00194829
0.00470478
0
0.00222006
0.00674657
0.00783007
0.0081297
0.00886552
0.00896699
0.0101782
0.0115399
0.0129582
0.0147659
0.0164988
0.01929
0.0231755
0.0296266
0.0355877
0.0411993
0.0518256
0.0600173
0.0846372
0.102324
0.135293
0.152001
0.181868
0.192113
0.212993
0.226968
0.327074
0.321318
0.208762
0.215744
0.28669
0.2796
0.326447
0.324878
0.323151
0.322308