/*--------------------------------*- C++ -*----------------------------------*\
| =========                 |                                                 |
| \\      /  F ield         | OpenFOAM: The Open Source CFD Toolbox           |
|  \\    /   O peration     | Version:  v2006                                 |
|   \\  /    A nd           | Website:  www.openfoam.com                      |
|    \\/     M anipulation  |                                                 |
\*---------------------------------------------------------------------------*/
FoamFile
{
    version     2.0;
    format      ascii;
    class       volScalarField;
    location    "220";
    object      nut;
}
// * * * * * * * * * * * * * * * * * * * * * * * * * * * * * * * * * * * * * //

dimensions      [0 2 -1 0 0 0 0];


internalField   nonuniform List<scalar> 
93840
(
2.99483e-08
3.37496e-08
3.12559e-08
3.48142e-08
2.9196e-08
3.84059e-08
3.1812e-08
3.51077e-08
3.36472e-08
6.12008e-08
9.34779e-08
2.24556e-08
1.67932e-09
1.15758e-08
1.13119e-07
2.96166e-07
3.32821e-07
3.88666e-07
4.99011e-07
1.64438e-06
7.03617e-06
2.32854e-05
4.39371e-05
4.84135e-05
4.09704e-05
3.5198e-05
2.546e-05
2.14796e-05
1.84998e-05
1.72588e-05
1.59395e-05
1.47848e-05
1.5159e-05
1.43558e-05
1.44538e-05
1.41596e-05
1.40256e-05
1.39037e-05
1.37078e-05
1.36418e-05
1.34567e-05
1.34068e-05
1.32337e-05
1.31835e-05
1.30167e-05
1.29546e-05
1.27982e-05
1.27456e-05
1.26013e-05
1.25376e-05
1.24072e-05
1.23516e-05
1.22065e-05
1.21308e-05
1.20466e-05
1.20483e-05
1.19359e-05
1.18712e-05
1.17377e-05
1.16846e-05
1.16057e-05
1.15411e-05
1.14469e-05
1.14349e-05
1.13682e-05
1.13361e-05
1.12924e-05
1.12884e-05
1.12338e-05
1.1228e-05
1.11984e-05
1.11923e-05
1.11702e-05
1.1186e-05
1.11662e-05
1.11877e-05
1.11844e-05
1.12066e-05
1.12249e-05
1.1258e-05
1.12695e-05
1.13019e-05
1.13259e-05
1.13831e-05
1.14312e-05
1.14829e-05
1.15391e-05
1.15936e-05
1.16471e-05
1.17112e-05
1.18032e-05
1.19029e-05
1.20017e-05
1.21097e-05
1.22247e-05
1.23546e-05
1.24854e-05
1.26191e-05
1.27611e-05
1.29196e-05
1.30824e-05
1.324e-05
1.34085e-05
1.37457e-05
1.40729e-05
1.41439e-05
1.42082e-05
1.44624e-05
1.47325e-05
1.50013e-05
1.52656e-05
1.55278e-05
1.57878e-05
1.61062e-05
1.63932e-05
1.66751e-05
1.69301e-05
1.7232e-05
1.74612e-05
1.76978e-05
1.7875e-05
1.80891e-05
1.81705e-05
1.83097e-05
1.83184e-05
1.8262e-05
1.83144e-05
1.81333e-05
1.81664e-05
1.80492e-05
1.79468e-05
1.78376e-05
1.77068e-05
1.76342e-05
1.75354e-05
1.74204e-05
1.73004e-05
1.72052e-05
1.71204e-05
1.7042e-05
1.69654e-05
1.6882e-05
1.6755e-05
1.66781e-05
1.65896e-05
1.65125e-05
1.64356e-05
1.6348e-05
1.62306e-05
1.61092e-05
1.59895e-05
1.58695e-05
1.57278e-05
1.55863e-05
1.54265e-05
1.52748e-05
1.50584e-05
1.48478e-05
1.46323e-05
1.44277e-05
1.41819e-05
1.39331e-05
1.36616e-05
1.33691e-05
1.30083e-05
1.25573e-05
1.20523e-05
1.15682e-05
1.09531e-05
9.52538e-06
6.27967e-06
1.80255e-06
3.34658e-06
8.42425e-06
5.04291e-06
1.17066e-08
1.8661e-09
1.00741e-06
2.40069e-07
1.0229e-07
1.00828e-09
8.82783e-07
1.82939e-07
1.93977e-07
1.15826e-08
6.84784e-10
9.12708e-06
1.50205e-05
1.61922e-06
5.91278e-06
1.97836e-05
2.46623e-05
2.2437e-05
2.3793e-05
2.77439e-05
3.07827e-05
3.23123e-05
3.27948e-05
3.27866e-05
3.29582e-05
3.27213e-05
3.26754e-05
3.23417e-05
3.22001e-05
3.19888e-05
3.18282e-05
3.15051e-05
3.13403e-05
3.09594e-05
3.07998e-05
3.04073e-05
3.0321e-05
2.99876e-05
2.99332e-05
2.96278e-05
2.95524e-05
2.92308e-05
2.9139e-05
2.88332e-05
2.87538e-05
2.86337e-05
2.8613e-05
2.83102e-05
2.82397e-05
2.79301e-05
2.78249e-05
2.75466e-05
2.74805e-05
2.72088e-05
2.71116e-05
2.69008e-05
2.70576e-05
2.68653e-05
2.69937e-05
2.68561e-05
2.6856e-05
2.66748e-05
2.6656e-05
2.6468e-05
2.644e-05
2.63411e-05
2.63152e-05
2.62799e-05
2.62071e-05
2.63059e-05
2.62052e-05
2.6255e-05
2.61682e-05
2.62078e-05
2.50518e-05
2.13855e-05
1.27327e-05
6.0577e-06
6.56275e-06
6.21835e-06
6.71571e-06
6.58217e-06
6.94562e-06
6.88848e-06
7.05653e-06
6.96937e-06
6.96814e-06
6.81803e-06
6.69669e-06
6.46889e-06
6.2542e-06
5.9925e-06
5.69056e-06
5.25752e-06
4.88598e-06
4.66202e-06
4.39308e-06
4.00855e-06
3.77763e-06
3.69576e-06
3.60377e-06
3.50329e-06
3.42003e-06
3.34266e-06
3.26609e-06
3.188e-06
3.11444e-06
3.07342e-06
3.04148e-06
3.00222e-06
2.97558e-06
2.93585e-06
2.91215e-06
2.87231e-06
2.85218e-06
2.81555e-06
2.81259e-06
2.80969e-06
2.88865e-06
2.92685e-06
3.04182e-06
3.07592e-06
3.18941e-06
3.2109e-06
3.31401e-06
3.32225e-06
3.41375e-06
3.41052e-06
3.49123e-06
3.47748e-06
3.54727e-06
3.52519e-06
3.58477e-06
3.55415e-06
3.60292e-06
3.56505e-06
3.60145e-06
3.55583e-06
3.58494e-06
3.53298e-06
3.55355e-06
3.49318e-06
3.5009e-06
3.42687e-06
3.42226e-06
3.33396e-06
3.31639e-06
3.21176e-06
3.18117e-06
3.09956e-06
3.15422e-06
3.25187e-06
3.37788e-06
3.50654e-06
3.67282e-06
3.82684e-06
4.0077e-06
4.29267e-06
4.98812e-06
5.91603e-06
6.36787e-06
1.4948e-05
2.59555e-05
3.50227e-05
4.09332e-05
4.66407e-05
4.58642e-05
4.85592e-05
4.63335e-05
4.96717e-05
4.70077e-05
2.78561e-05
9.04447e-06
2.25133e-06
5.65716e-07
3.52513e-07
3.20284e-07
2.96981e-07
1.13273e-07
1.19632e-08
1.62049e-09
2.13811e-08
9.23758e-08
6.18176e-08
3.33759e-08
3.37345e-08
3.20384e-08
3.85031e-08
2.95253e-08
3.43655e-08
3.06904e-08
3.30779e-08
2.99757e-08
2.99584e-08
3.36184e-08
3.0621e-08
3.42394e-08
2.95835e-08
3.80362e-08
3.17135e-08
3.34013e-08
3.28181e-08
6.13327e-08
9.33269e-08
2.31374e-08
1.74745e-09
1.0898e-08
1.05695e-07
2.90226e-07
3.10737e-07
3.29846e-07
4.31376e-07
1.20701e-06
5.01224e-06
1.84911e-05
3.94972e-05
4.91087e-05
4.588e-05
4.45925e-05
3.85276e-05
3.20443e-05
2.69939e-05
2.28134e-05
2.03091e-05
1.85023e-05
1.7819e-05
1.75691e-05
1.79964e-05
1.7248e-05
1.80349e-05
1.71063e-05
1.79972e-05
1.70371e-05
1.79115e-05
1.69975e-05
1.78306e-05
1.69924e-05
1.77492e-05
1.6998e-05
1.76567e-05
1.69967e-05
1.75745e-05
1.70078e-05
1.74935e-05
1.70179e-05
1.74326e-05
1.70016e-05
1.7325e-05
1.69976e-05
1.73327e-05
1.70605e-05
1.7309e-05
1.70281e-05
1.72385e-05
1.70562e-05
1.72168e-05
1.70451e-05
1.72038e-05
1.70724e-05
1.71852e-05
1.70949e-05
1.72085e-05
1.71315e-05
1.72234e-05
1.71723e-05
1.72447e-05
1.72189e-05
1.72904e-05
1.72672e-05
1.73323e-05
1.73198e-05
1.73852e-05
1.73949e-05
1.7458e-05
1.7466e-05
1.75197e-05
1.75402e-05
1.7603e-05
1.76346e-05
1.76866e-05
1.77258e-05
1.77707e-05
1.77986e-05
1.78418e-05
1.78851e-05
1.79342e-05
1.79761e-05
1.80198e-05
1.80614e-05
1.81072e-05
1.81471e-05
1.81829e-05
1.82195e-05
1.82506e-05
1.82696e-05
1.82633e-05
1.82923e-05
1.83583e-05
1.83893e-05
1.83564e-05
1.83434e-05
1.83465e-05
1.83471e-05
1.83365e-05
1.83222e-05
1.82987e-05
1.82758e-05
1.823e-05
1.8188e-05
1.81282e-05
1.80681e-05
1.79643e-05
1.78756e-05
1.77499e-05
1.76308e-05
1.74547e-05
1.73188e-05
1.71119e-05
1.69574e-05
1.67515e-05
1.65696e-05
1.63773e-05
1.6162e-05
1.59811e-05
1.57676e-05
1.55854e-05
1.53791e-05
1.51774e-05
1.49872e-05
1.4797e-05
1.46076e-05
1.44105e-05
1.42078e-05
1.39962e-05
1.37959e-05
1.3596e-05
1.3399e-05
1.31764e-05
1.29641e-05
1.27279e-05
1.24893e-05
1.22236e-05
1.19687e-05
1.16885e-05
1.13857e-05
1.10362e-05
1.06819e-05
1.03002e-05
9.85226e-06
9.32929e-06
8.85999e-06
8.34134e-06
7.64962e-06
6.86359e-06
6.3e-06
5.81236e-06
4.99172e-06
3.64782e-06
2.34634e-06
1.9882e-06
2.59047e-06
2.67469e-06
1.55406e-06
5.49563e-08
2.95001e-10
1.36735e-07
7.75382e-08
5.92265e-08
4.53291e-09
3.65805e-07
2.31823e-07
2.92019e-07
5.04116e-07
2.69057e-08
5.68901e-07
8.24911e-07
1.35848e-06
8.99669e-07
4.59755e-07
9.87317e-07
7.44639e-07
7.10781e-09
3.32277e-08
4.40011e-06
5.38802e-06
2.23169e-06
2.61705e-06
4.81792e-06
6.86349e-06
1.02607e-05
1.26768e-05
1.31444e-05
1.44489e-05
1.60491e-05
1.7492e-05
1.84517e-05
1.91443e-05
1.98983e-05
2.0854e-05
2.14703e-05
2.21349e-05
2.24981e-05
2.29919e-05
2.31311e-05
2.34703e-05
2.36003e-05
2.39687e-05
2.41195e-05
2.43688e-05
2.44365e-05
2.46375e-05
2.47225e-05
2.49114e-05
2.49501e-05
2.5146e-05
2.52488e-05
2.54216e-05
2.55287e-05
2.56906e-05
2.57939e-05
2.59131e-05
2.59764e-05
2.60995e-05
2.61959e-05
2.63394e-05
2.63966e-05
2.65516e-05
2.65142e-05
2.68196e-05
2.67823e-05
2.71398e-05
2.70291e-05
2.7415e-05
2.72212e-05
2.77398e-05
2.73635e-05
2.80443e-05
2.75469e-05
2.82929e-05
2.77619e-05
2.84427e-05
2.8198e-05
2.8308e-05
2.69849e-05
2.41355e-05
2.96605e-05
3.42733e-05
3.4878e-05
3.39627e-05
3.32174e-05
3.21522e-05
3.13401e-05
3.03933e-05
2.96219e-05
2.88097e-05
2.8123e-05
2.74202e-05
2.68083e-05
2.62187e-05
2.56823e-05
2.50892e-05
2.46179e-05
2.4278e-05
2.3855e-05
2.33418e-05
2.29015e-05
2.25974e-05
2.22405e-05
2.18358e-05
2.1437e-05
2.11202e-05
2.07915e-05
2.04723e-05
2.01377e-05
1.982e-05
1.94941e-05
1.92089e-05
1.88972e-05
1.86467e-05
1.83486e-05
1.81244e-05
1.78409e-05
1.76469e-05
1.73818e-05
1.72169e-05
1.69674e-05
1.68248e-05
1.6592e-05
1.64659e-05
1.62497e-05
1.61442e-05
1.59502e-05
1.58624e-05
1.56884e-05
1.56089e-05
1.54513e-05
1.53848e-05
1.52556e-05
1.52049e-05
1.51024e-05
1.5067e-05
1.49918e-05
1.49741e-05
1.49336e-05
1.49345e-05
1.493e-05
1.49675e-05
1.50086e-05
1.50926e-05
1.51917e-05
1.53318e-05
1.54934e-05
1.57083e-05
1.59554e-05
1.62643e-05
1.66148e-05
1.70247e-05
1.74795e-05
1.79831e-05
1.85344e-05
1.91221e-05
1.98378e-05
2.05459e-05
2.13726e-05
2.22343e-05
2.35054e-05
2.54095e-05
2.79015e-05
3.25768e-05
4.48392e-05
5.96962e-05
7.4222e-05
8.59368e-05
9.48765e-05
9.53857e-05
9.40738e-05
8.23796e-05
7.1427e-05
5.54565e-05
3.24375e-05
1.1879e-05
2.94609e-06
7.32783e-07
4.16984e-07
3.33183e-07
3.01602e-07
1.18808e-07
1.28093e-08
1.57043e-09
2.05955e-08
9.24434e-08
6.17021e-08
3.42967e-08
3.54856e-08
3.21722e-08
3.88742e-08
2.92497e-08
3.47737e-08
3.13299e-08
3.29375e-08
2.9817e-08
3.00644e-08
3.41221e-08
3.12902e-08
3.46149e-08
2.95076e-08
3.74816e-08
3.15492e-08
3.48415e-08
3.30414e-08
6.04387e-08
9.45721e-08
2.42133e-08
1.83731e-09
1.06775e-08
1.05599e-07
2.90338e-07
3.28368e-07
3.69128e-07
4.00519e-07
8.14162e-07
3.51608e-06
1.38172e-05
3.36419e-05
4.67853e-05
4.54026e-05
4.54166e-05
4.27635e-05
3.93642e-05
3.64228e-05
3.34675e-05
3.15192e-05
3.00699e-05
2.89444e-05
2.9043e-05
2.86467e-05
2.85215e-05
2.85119e-05
2.82717e-05
2.84012e-05
2.81233e-05
2.82928e-05
2.80235e-05
2.82178e-05
2.7951e-05
2.81552e-05
2.78833e-05
2.80861e-05
2.78179e-05
2.80294e-05
2.77605e-05
2.7974e-05
2.77089e-05
2.79129e-05
2.76244e-05
2.78349e-05
2.76196e-05
2.78713e-05
2.76415e-05
2.78126e-05
2.75445e-05
2.77135e-05
2.75094e-05
2.76439e-05
2.74542e-05
2.76014e-05
2.74264e-05
2.75418e-05
2.74082e-05
2.75186e-05
2.73884e-05
2.74772e-05
2.73606e-05
2.74277e-05
2.73407e-05
2.73962e-05
2.73027e-05
2.73464e-05
2.72591e-05
2.73011e-05
2.72344e-05
2.72557e-05
2.71711e-05
2.7173e-05
2.71006e-05
2.71034e-05
2.70306e-05
2.70033e-05
2.69211e-05
2.6855e-05
2.67427e-05
2.66629e-05
2.65655e-05
2.64755e-05
2.63573e-05
2.62455e-05
2.61124e-05
2.599e-05
2.58343e-05
2.56759e-05
2.5501e-05
2.53098e-05
2.50845e-05
2.4825e-05
2.46143e-05
2.44814e-05
2.42787e-05
2.39502e-05
2.36401e-05
2.33521e-05
2.30484e-05
2.27303e-05
2.23984e-05
2.20553e-05
2.16986e-05
2.13254e-05
2.09573e-05
2.05851e-05
2.01944e-05
1.97755e-05
1.93828e-05
1.89829e-05
1.85696e-05
1.81563e-05
1.77727e-05
1.73656e-05
1.69981e-05
1.65929e-05
1.62459e-05
1.58154e-05
1.54655e-05
1.50744e-05
1.47005e-05
1.43282e-05
1.39312e-05
1.35429e-05
1.31777e-05
1.27915e-05
1.23995e-05
1.19845e-05
1.15524e-05
1.11066e-05
1.06891e-05
1.02532e-05
9.79323e-06
9.2911e-06
8.79757e-06
8.27663e-06
7.7524e-06
7.17031e-06
6.54397e-06
5.83779e-06
5.1871e-06
4.66867e-06
4.24766e-06
3.59942e-06
2.77209e-06
2.34504e-06
2.37009e-06
1.87214e-06
9.07949e-07
5.69714e-07
6.51478e-07
4.12654e-07
3.36101e-07
2.45356e-07
1.46564e-07
2.25954e-07
1.16764e-07
1.17726e-08
7.79787e-08
2.33651e-07
3.16689e-07
3.43342e-07
4.11183e-07
4.04641e-07
3.67889e-07
9.51247e-08
6.25256e-08
1.79957e-07
4.51349e-07
7.39699e-09
9.12304e-07
1.32869e-06
8.85378e-07
7.43087e-07
6.59536e-07
5.23933e-07
9.76462e-07
2.71637e-07
1.634e-07
1.12516e-06
1.22542e-06
1.59303e-08
9.97695e-09
8.37606e-07
8.34312e-07
1.06402e-06
1.88605e-06
1.58602e-06
2.8725e-06
3.67061e-06
3.99377e-06
4.56093e-06
5.06977e-06
5.88641e-06
7.09764e-06
8.15247e-06
9.55323e-06
1.07675e-05
1.20828e-05
1.29643e-05
1.40569e-05
1.49424e-05
1.61077e-05
1.70995e-05
1.79942e-05
1.86611e-05
1.9337e-05
1.99521e-05
2.06217e-05
2.1185e-05
2.17741e-05
2.24312e-05
2.29858e-05
2.36264e-05
2.41147e-05
2.47759e-05
2.51704e-05
2.5707e-05
2.60336e-05
2.66614e-05
2.71503e-05
2.76281e-05
2.80956e-05
2.82621e-05
2.8939e-05
2.91397e-05
2.9942e-05
3.00262e-05
3.08307e-05
3.07703e-05
3.18283e-05
3.1466e-05
3.2684e-05
3.22639e-05
3.3395e-05
3.29984e-05
3.39568e-05
3.39857e-05
3.42402e-05
3.47727e-05
3.08343e-05
3.8596e-05
4.80415e-05
5.35908e-05
5.63773e-05
5.79698e-05
5.87267e-05
5.89777e-05
5.88145e-05
5.83889e-05
5.77643e-05
5.7065e-05
5.62598e-05
5.5455e-05
5.46481e-05
5.38663e-05
5.28977e-05
5.20536e-05
5.153e-05
5.08955e-05
4.99791e-05
4.91082e-05
4.85565e-05
4.79469e-05
4.72108e-05
4.6459e-05
4.58601e-05
4.52209e-05
4.46032e-05
4.39347e-05
4.33103e-05
4.26593e-05
4.20902e-05
4.14578e-05
4.09414e-05
4.03225e-05
3.9851e-05
3.92571e-05
3.8848e-05
3.82908e-05
3.79429e-05
3.7424e-05
3.71339e-05
3.66551e-05
3.64085e-05
3.59613e-05
3.57541e-05
3.53501e-05
3.51743e-05
3.48071e-05
3.46426e-05
3.43064e-05
3.41632e-05
3.38883e-05
3.37755e-05
3.35474e-05
3.34513e-05
3.32752e-05
3.32073e-05
3.3096e-05
3.30672e-05
3.30248e-05
3.30506e-05
3.30877e-05
3.31902e-05
3.33326e-05
3.35422e-05
3.38107e-05
3.41534e-05
3.45743e-05
3.50787e-05
3.56738e-05
3.63621e-05
3.71447e-05
3.80161e-05
3.89986e-05
4.00551e-05
4.12456e-05
4.25005e-05
4.39176e-05
4.53279e-05
4.72714e-05
4.92454e-05
5.23024e-05
5.67366e-05
6.47251e-05
8.38394e-05
0.000103875
0.000121866
0.000136155
0.000142287
0.000143619
0.000131488
0.00011514
8.40908e-05
4.23173e-05
1.4904e-05
4.03341e-06
8.87677e-07
3.78762e-07
3.24574e-07
3.05553e-07
1.19065e-07
1.36944e-08
1.51866e-09
1.94125e-08
9.09226e-08
6.22786e-08
3.37477e-08
3.38692e-08
3.23717e-08
3.87961e-08
2.94154e-08
3.46952e-08
3.09561e-08
3.2174e-08
2.99216e-08
3.00278e-08
3.36605e-08
3.0588e-08
3.40562e-08
3.02322e-08
3.71666e-08
3.14231e-08
3.32918e-08
3.24418e-08
6.07946e-08
9.45192e-08
2.48253e-08
1.9025e-09
1.02362e-08
9.9098e-08
2.82309e-07
3.08595e-07
3.2572e-07
3.9885e-07
6.54793e-07
2.40324e-06
1.02833e-05
2.8106e-05
4.401e-05
4.52438e-05
4.59253e-05
4.52158e-05
4.26691e-05
4.11844e-05
3.92472e-05
3.80771e-05
3.70534e-05
3.66176e-05
3.60622e-05
3.60009e-05
3.56311e-05
3.57008e-05
3.541e-05
3.5523e-05
3.52733e-05
3.53889e-05
3.51725e-05
3.52893e-05
3.50919e-05
3.52029e-05
3.5017e-05
3.5119e-05
3.49426e-05
3.50419e-05
3.487e-05
3.49694e-05
3.47942e-05
3.48903e-05
3.47039e-05
3.48157e-05
3.46616e-05
3.48022e-05
3.46291e-05
3.47217e-05
3.45078e-05
3.45973e-05
3.44159e-05
3.44983e-05
3.4319e-05
3.44083e-05
3.42365e-05
3.43091e-05
3.41582e-05
3.42235e-05
3.40719e-05
3.41154e-05
3.39659e-05
3.39919e-05
3.38584e-05
3.38677e-05
3.37229e-05
3.3716e-05
3.35705e-05
3.35569e-05
3.34186e-05
3.3378e-05
3.32156e-05
3.31498e-05
3.29892e-05
3.29096e-05
3.27366e-05
3.2613e-05
3.24141e-05
3.22387e-05
3.20028e-05
3.18021e-05
3.1566e-05
3.13401e-05
3.10724e-05
3.08112e-05
3.05139e-05
3.02277e-05
2.98927e-05
2.95579e-05
2.91898e-05
2.88003e-05
2.837e-05
2.79171e-05
2.74887e-05
2.7112e-05
2.66756e-05
2.61378e-05
2.55955e-05
2.50592e-05
2.45013e-05
2.39312e-05
2.33434e-05
2.27571e-05
2.21402e-05
2.15164e-05
2.09021e-05
2.0308e-05
1.96694e-05
1.90249e-05
1.84146e-05
1.78265e-05
1.71934e-05
1.66195e-05
1.6042e-05
1.54835e-05
1.4936e-05
1.44008e-05
1.38785e-05
1.33002e-05
1.28e-05
1.22384e-05
1.17296e-05
1.11875e-05
1.06409e-05
1.00748e-05
9.5567e-06
8.97449e-06
8.38598e-06
7.73177e-06
7.03479e-06
6.2961e-06
5.59541e-06
4.87077e-06
4.14851e-06
3.46219e-06
2.95523e-06
2.5347e-06
2.14222e-06
1.71422e-06
1.30296e-06
8.33519e-07
5.14987e-07
4.72045e-07
6.17488e-07
4.98051e-07
2.54733e-07
2.68438e-07
3.29045e-07
1.68207e-07
1.75149e-07
2.15016e-07
1.31712e-07
1.1486e-07
1.74849e-07
1.32978e-07
1.87936e-07
1.67273e-07
1.17645e-07
1.46322e-07
1.28062e-07
1.38294e-07
3.12662e-07
2.43493e-07
1.4732e-07
9.0888e-08
1.02724e-07
3.69753e-07
5.22308e-07
5.30318e-07
5.25274e-07
1.14232e-08
1.27697e-06
1.166e-06
7.71152e-07
6.29955e-07
5.52182e-07
2.68309e-07
3.07078e-07
1.29522e-07
1.05509e-07
2.84062e-07
3.39812e-07
1.75417e-08
1.72368e-08
2.98163e-07
3.5023e-07
6.37441e-09
1.02279e-07
9.63044e-08
1.27474e-07
1.63659e-07
1.71196e-07
1.76925e-07
4.41153e-07
3.41795e-07
5.59998e-07
7.0049e-07
1.40131e-06
1.56953e-06
2.44337e-06
2.89745e-06
3.61609e-06
4.24892e-06
5.36242e-06
6.67657e-06
7.84487e-06
8.88056e-06
9.87192e-06
1.09917e-05
1.21971e-05
1.34539e-05
1.45658e-05
1.58787e-05
1.68587e-05
1.80609e-05
1.88552e-05
2.00193e-05
2.06713e-05
2.16365e-05
2.21479e-05
2.32057e-05
2.40437e-05
2.49427e-05
2.57301e-05
2.61576e-05
2.71015e-05
2.76108e-05
2.86792e-05
2.90886e-05
3.00634e-05
3.03423e-05
3.15736e-05
3.15975e-05
3.28464e-05
3.2992e-05
3.39675e-05
3.42706e-05
3.48662e-05
3.57157e-05
3.5781e-05
3.822e-05
3.55577e-05
4.27899e-05
5.42449e-05
6.32025e-05
6.87882e-05
7.25605e-05
7.50596e-05
7.67081e-05
7.77395e-05
7.82669e-05
7.84768e-05
7.84508e-05
7.82378e-05
7.79029e-05
7.75267e-05
7.71157e-05
7.6381e-05
7.56599e-05
7.54589e-05
7.52119e-05
7.43979e-05
7.34314e-05
7.29248e-05
7.24704e-05
7.17476e-05
7.08693e-05
7.0167e-05
6.94421e-05
6.87249e-05
6.79124e-05
6.71552e-05
6.63356e-05
6.55982e-05
6.47785e-05
6.41e-05
6.32808e-05
6.26381e-05
6.18338e-05
6.12601e-05
6.04921e-05
5.99891e-05
5.9265e-05
5.88335e-05
5.8151e-05
5.77769e-05
5.71341e-05
5.68093e-05
5.62202e-05
5.59423e-05
5.53958e-05
5.51256e-05
5.46141e-05
5.43808e-05
5.39583e-05
5.37698e-05
5.3407e-05
5.32318e-05
5.29351e-05
5.27986e-05
5.25953e-05
5.25193e-05
5.24164e-05
5.24078e-05
5.24059e-05
5.24978e-05
5.26435e-05
5.28917e-05
5.32256e-05
5.36628e-05
5.42044e-05
5.48574e-05
5.56306e-05
5.65303e-05
5.75574e-05
5.8707e-05
5.99816e-05
6.13571e-05
6.28663e-05
6.44583e-05
6.61786e-05
6.7938e-05
6.99321e-05
7.22874e-05
7.54914e-05
7.99301e-05
8.80244e-05
0.000104245
0.000127595
0.000149411
0.00016782
0.000179405
0.000184781
0.000175465
0.000158949
0.000120334
6.54332e-05
1.96336e-05
5.03945e-06
1.18472e-06
4.58314e-07
3.38e-07
3.11063e-07
1.25853e-07
1.47849e-08
1.50682e-09
1.87083e-08
9.11505e-08
6.23473e-08
3.46832e-08
3.55944e-08
3.24392e-08
3.92869e-08
2.90899e-08
3.52334e-08
3.15485e-08
3.25143e-08
2.99089e-08
3.00584e-08
3.46115e-08
3.10559e-08
3.43555e-08
3.0172e-08
3.68468e-08
3.13454e-08
3.46462e-08
3.26492e-08
6.00714e-08
9.56427e-08
2.58514e-08
1.99763e-09
1.02747e-08
9.84226e-08
2.81525e-07
3.22641e-07
3.51962e-07
3.79005e-07
4.99756e-07
1.58622e-06
7.1167e-06
2.23203e-05
3.98812e-05
4.41024e-05
4.53702e-05
4.63727e-05
4.50086e-05
4.44254e-05
4.32698e-05
4.26635e-05
4.2004e-05
4.16545e-05
4.13118e-05
4.11428e-05
4.09344e-05
4.08665e-05
4.07211e-05
4.07005e-05
4.05843e-05
4.05826e-05
4.04806e-05
4.04908e-05
4.03926e-05
4.04089e-05
4.03093e-05
4.0329e-05
4.02265e-05
4.02485e-05
4.01425e-05
4.0168e-05
4.00526e-05
4.00783e-05
3.99548e-05
3.99943e-05
3.98815e-05
3.9936e-05
3.98053e-05
3.98307e-05
3.96643e-05
3.96847e-05
3.95286e-05
3.95494e-05
3.93873e-05
3.94102e-05
3.92474e-05
3.92604e-05
3.91007e-05
3.91034e-05
3.89348e-05
3.8917e-05
3.87391e-05
3.87033e-05
3.85265e-05
3.84704e-05
3.82751e-05
3.81987e-05
3.79935e-05
3.79027e-05
3.769e-05
3.75683e-05
3.73254e-05
3.71724e-05
3.69149e-05
3.67312e-05
3.64493e-05
3.62084e-05
3.58855e-05
3.55867e-05
3.522e-05
3.48816e-05
3.44949e-05
3.41177e-05
3.36889e-05
3.32627e-05
3.27901e-05
3.23263e-05
3.18025e-05
3.12824e-05
3.07125e-05
3.01201e-05
2.94852e-05
2.88384e-05
2.81687e-05
2.75244e-05
2.68595e-05
2.61342e-05
2.53674e-05
2.45942e-05
2.37943e-05
2.29916e-05
2.21707e-05
2.13717e-05
2.05198e-05
1.96816e-05
1.88575e-05
1.80822e-05
1.72266e-05
1.64022e-05
1.56072e-05
1.48681e-05
1.40332e-05
1.3332e-05
1.25672e-05
1.1878e-05
1.11529e-05
1.05125e-05
9.79526e-06
9.0845e-06
8.37891e-06
7.61896e-06
6.90363e-06
6.12511e-06
5.35266e-06
4.54615e-06
3.89072e-06
3.19281e-06
2.60278e-06
1.9155e-06
1.31514e-06
8.01474e-07
5.61106e-07
2.64829e-07
1.67437e-07
1.14656e-07
1.72476e-07
1.33197e-07
1.63875e-07
1.30657e-07
1.81201e-07
1.41118e-07
1.92645e-07
1.5591e-07
2.61895e-07
2.58175e-07
2.62717e-07
2.00399e-07
1.69008e-07
1.6986e-07
2.35267e-07
1.30621e-07
1.31385e-07
1.03593e-07
1.17752e-07
1.35328e-07
1.35132e-07
5.21336e-08
4.53557e-08
7.38289e-08
1.29425e-07
2.31423e-07
1.53306e-07
1.18339e-07
1.15615e-07
2.49201e-07
3.98224e-07
6.76699e-07
5.77246e-07
9.0839e-08
1.00512e-07
1.06271e-11
1.20181e-06
1.33399e-06
9.15863e-07
1.00801e-06
6.17909e-07
4.75179e-07
3.35365e-07
1.7555e-07
1.74994e-07
2.6125e-07
1.32833e-07
7.26885e-09
3.42533e-08
1.96876e-07
1.04002e-07
8.74317e-09
3.78963e-08
8.35296e-08
6.50473e-08
4.14693e-08
3.76234e-08
4.01643e-08
3.47289e-08
5.15402e-08
4.42193e-08
7.34871e-08
1.02096e-07
4.6557e-08
8.17736e-08
7.68398e-08
2.81365e-08
9.43765e-08
8.36548e-08
4.939e-07
7.1182e-07
1.39221e-06
1.40755e-06
2.15261e-06
2.74788e-06
3.82967e-06
4.54319e-06
6.14143e-06
7.2757e-06
9.04987e-06
1.01197e-05
1.1862e-05
1.28441e-05
1.43108e-05
1.50704e-05
1.65765e-05
1.77861e-05
1.91193e-05
2.02269e-05
2.0991e-05
2.21121e-05
2.30502e-05
2.42586e-05
2.51732e-05
2.61397e-05
2.69665e-05
2.81228e-05
2.8824e-05
2.98078e-05
3.08247e-05
3.14029e-05
3.25965e-05
3.27844e-05
3.44066e-05
3.41321e-05
3.83657e-05
3.78558e-05
4.45926e-05
5.61948e-05
6.7501e-05
7.55784e-05
8.16349e-05
8.60108e-05
8.92824e-05
9.17059e-05
9.34372e-05
9.4715e-05
9.56259e-05
9.6269e-05
9.66933e-05
9.70271e-05
9.72833e-05
9.71273e-05
9.68453e-05
9.7211e-05
9.76678e-05
9.73528e-05
9.66145e-05
9.64119e-05
9.6441e-05
9.60994e-05
9.53958e-05
9.48298e-05
9.42821e-05
9.37234e-05
9.30206e-05
9.23402e-05
9.15523e-05
9.08297e-05
8.99979e-05
8.93015e-05
8.84355e-05
8.77378e-05
8.68442e-05
8.61869e-05
8.53051e-05
8.47039e-05
8.3853e-05
8.33207e-05
8.25001e-05
8.20206e-05
8.12347e-05
8.0808e-05
8.00783e-05
7.9703e-05
7.90115e-05
7.86399e-05
7.79772e-05
7.76531e-05
7.70986e-05
7.68322e-05
7.63376e-05
7.60758e-05
7.56495e-05
7.54342e-05
7.51215e-05
7.49838e-05
7.47927e-05
7.47307e-05
7.46551e-05
7.4707e-05
7.48177e-05
7.50704e-05
7.54272e-05
7.59175e-05
7.65307e-05
7.72846e-05
7.81805e-05
7.92291e-05
8.04321e-05
8.17767e-05
8.32601e-05
8.48534e-05
8.65678e-05
8.83722e-05
9.02735e-05
9.22511e-05
9.44138e-05
9.68051e-05
9.99543e-05
0.000104338
0.000111953
0.000125471
0.000148962
0.000173303
0.000195122
0.000211672
0.000221784
0.000217036
0.000202808
0.000160734
0.000103856
2.75614e-05
6.74055e-06
1.43161e-06
4.43788e-07
3.32843e-07
3.15948e-07
1.26301e-07
1.57144e-08
1.46619e-09
1.77312e-08
8.96631e-08
6.28293e-08
3.40537e-08
3.39823e-08
3.26997e-08
3.94606e-08
2.94491e-08
3.49237e-08
3.10403e-08
3.18256e-08
3.00242e-08
3.0139e-08
3.4013e-08
3.07815e-08
3.43687e-08
3.06751e-08
3.65817e-08
3.12389e-08
3.31192e-08
3.21626e-08
6.01882e-08
9.58279e-08
2.65186e-08
2.04487e-09
9.84574e-09
9.32796e-08
2.73172e-07
3.05034e-07
3.18787e-07
3.97719e-07
4.70599e-07
9.61237e-07
4.71376e-06
1.65054e-05
3.44631e-05
4.18456e-05
4.37497e-05
4.60712e-05
4.57368e-05
4.58699e-05
4.54063e-05
4.51836e-05
4.48813e-05
4.46926e-05
4.45182e-05
4.43916e-05
4.4286e-05
4.42105e-05
4.41405e-05
4.40972e-05
4.4043e-05
4.40163e-05
4.39674e-05
4.39511e-05
4.39e-05
4.38889e-05
4.38337e-05
4.38241e-05
4.37636e-05
4.37538e-05
4.36871e-05
4.36771e-05
4.36007e-05
4.35893e-05
4.35052e-05
4.34984e-05
4.34123e-05
4.341e-05
4.33083e-05
4.32871e-05
4.31569e-05
4.31261e-05
4.29913e-05
4.29574e-05
4.28098e-05
4.27715e-05
4.26152e-05
4.25653e-05
4.23978e-05
4.23333e-05
4.21473e-05
4.20613e-05
4.18562e-05
4.17473e-05
4.15281e-05
4.13949e-05
4.11493e-05
4.09912e-05
4.07248e-05
4.05429e-05
4.02549e-05
4.00385e-05
3.97132e-05
3.9458e-05
3.90985e-05
3.87961e-05
3.83993e-05
3.80275e-05
3.75774e-05
3.71451e-05
3.66434e-05
3.6155e-05
3.56122e-05
3.50733e-05
3.44772e-05
3.38763e-05
3.32239e-05
3.25759e-05
3.18596e-05
3.11518e-05
3.0378e-05
2.9584e-05
2.87469e-05
2.79052e-05
2.69813e-05
2.60733e-05
2.51997e-05
2.43064e-05
2.33299e-05
2.23433e-05
2.13228e-05
2.03169e-05
1.92931e-05
1.83151e-05
1.72573e-05
1.62438e-05
1.52456e-05
1.43232e-05
1.32788e-05
1.23177e-05
1.13632e-05
1.04947e-05
9.45138e-06
8.61252e-06
7.6067e-06
6.73654e-06
5.75935e-06
4.9792e-06
4.0531e-06
3.3265e-06
2.62459e-06
1.99966e-06
1.41702e-06
8.27642e-07
3.09825e-07
1.14736e-07
1.0057e-07
2.69798e-08
1.25079e-08
2.78618e-09
3.85092e-09
5.53149e-09
1.49735e-08
1.73209e-08
6.92769e-08
6.42744e-08
1.22977e-07
1.41622e-07
1.87715e-07
2.16037e-07
2.5457e-07
2.08877e-07
2.63751e-07
2.54194e-07
3.53167e-07
2.94686e-07
3.09256e-07
3.0695e-07
2.20757e-07
2.52195e-07
1.95682e-07
1.51026e-07
1.22213e-07
1.48838e-07
1.67446e-07
1.90806e-07
1.53853e-07
1.58386e-07
1.14601e-07
1.79222e-07
1.2299e-07
2.29717e-07
1.90829e-07
2.80946e-07
1.33993e-07
2.02511e-07
1.18939e-07
2.31898e-07
5.08704e-07
2.02414e-07
1.52925e-07
1.46513e-09
1.73625e-06
1.15163e-06
6.55079e-07
3.72652e-07
3.18497e-08
1.67249e-08
2.18886e-09
1.70295e-09
7.69351e-10
5.83011e-09
9.90543e-10
1.0353e-10
1.00903e-09
1.1569e-08
2.96354e-10
1.73994e-11
3.64525e-10
5.04641e-09
1.73042e-09
3.32165e-09
1.65155e-09
5.1581e-09
1.26825e-09
2.11815e-09
6.7587e-10
1.08582e-09
1.87177e-09
1.73802e-09
1.02683e-09
9.70301e-10
1.92085e-10
6.88133e-10
1.73911e-10
2.07486e-09
1.24972e-10
1.07816e-08
9.84477e-09
1.76031e-07
1.20367e-08
3.96997e-07
2.0772e-08
7.8825e-07
3.03417e-07
1.76771e-06
1.73505e-06
3.22004e-06
3.4997e-06
4.97213e-06
5.32526e-06
6.9089e-06
8.33779e-06
1.01985e-05
1.16805e-05
1.29813e-05
1.42856e-05
1.58652e-05
1.71269e-05
1.87554e-05
1.95624e-05
2.11385e-05
2.19982e-05
2.36272e-05
2.41346e-05
2.62361e-05
2.62615e-05
2.85008e-05
2.81453e-05
3.07171e-05
3.00148e-05
3.5795e-05
3.80959e-05
4.47088e-05
5.51114e-05
6.74798e-05
7.74761e-05
8.57475e-05
9.20581e-05
9.71216e-05
0.000101094
0.000104228
0.000106751
0.000108789
0.000110461
0.000111825
0.000113027
0.000114103
0.000114718
0.000115081
0.000116102
0.000117326
0.000117703
0.000117437
0.000117686
0.000118318
0.000118557
0.00011827
0.000118046
0.000117871
0.00011768
0.000117308
0.000116922
0.000116394
0.000115896
0.000115268
0.000114753
0.000114051
0.000113481
0.000112696
0.000112108
0.00011129
0.000110717
0.000109894
0.000109358
0.00010854
0.000108033
0.00010723
0.00010676
0.000106002
0.000105577
0.000104839
0.000104404
0.000103682
0.000103294
0.000102685
0.000102362
0.000101806
0.000101485
0.000100982
0.000100707
0.000100321
0.000100136
9.98696e-05
9.97558e-05
9.96035e-05
9.96027e-05
9.96524e-05
9.98833e-05
0.000100222
0.000100729
0.000101362
0.000102162
0.000103122
0.000104257
0.000105561
0.000107023
0.000108625
0.00011034
0.000112161
0.000114052
0.000116027
0.000118066
0.000120247
0.000122663
0.00012561
0.000129806
0.00013685
0.000148419
0.000168328
0.000194561
0.000219085
0.000239795
0.000254602
0.000255217
0.000244701
0.000201977
0.000149072
4.46803e-05
8.98016e-06
1.95967e-06
5.64501e-07
3.5064e-07
3.21387e-07
1.34456e-07
1.73128e-08
1.49077e-09
1.69639e-08
8.98399e-08
6.29498e-08
3.50991e-08
3.57188e-08
3.26601e-08
3.96473e-08
2.90966e-08
3.51071e-08
3.18813e-08
3.22489e-08
2.98906e-08
3.01302e-08
3.37987e-08
3.12889e-08
3.44439e-08
3.08551e-08
3.66257e-08
3.11424e-08
3.45329e-08
3.23294e-08
5.93778e-08
9.69317e-08
2.7691e-08
2.14321e-09
9.98786e-09
9.33756e-08
2.71235e-07
3.18415e-07
3.38975e-07
3.63631e-07
4.11346e-07
5.89108e-07
2.82344e-06
1.12917e-05
2.79639e-05
3.83681e-05
4.11277e-05
4.43078e-05
4.5065e-05
4.56293e-05
4.5831e-05
4.58674e-05
4.59307e-05
4.58831e-05
4.59074e-05
4.58557e-05
4.58663e-05
4.58268e-05
4.58326e-05
4.58045e-05
4.58066e-05
4.57855e-05
4.5783e-05
4.57661e-05
4.57567e-05
4.57416e-05
4.57241e-05
4.57081e-05
4.56821e-05
4.56628e-05
4.56278e-05
4.56044e-05
4.55588e-05
4.553e-05
4.54744e-05
4.54409e-05
4.53756e-05
4.53383e-05
4.52583e-05
4.5206e-05
4.51031e-05
4.50353e-05
4.49175e-05
4.48381e-05
4.47009e-05
4.46085e-05
4.44545e-05
4.43429e-05
4.41657e-05
4.40341e-05
4.38283e-05
4.36718e-05
4.34371e-05
4.32496e-05
4.29875e-05
4.27702e-05
4.24731e-05
4.22256e-05
4.18964e-05
4.16144e-05
4.12504e-05
4.09296e-05
4.05203e-05
4.01511e-05
3.96867e-05
3.92553e-05
3.87409e-05
3.82286e-05
3.76513e-05
3.70779e-05
3.64398e-05
3.57935e-05
3.50941e-05
3.43871e-05
3.36226e-05
3.28431e-05
3.20125e-05
3.11794e-05
3.02731e-05
2.93811e-05
2.84065e-05
2.74174e-05
2.63851e-05
2.53533e-05
2.41804e-05
2.30351e-05
2.19798e-05
2.09402e-05
1.97787e-05
1.86118e-05
1.7401e-05
1.62273e-05
1.50341e-05
1.39086e-05
1.2672e-05
1.15051e-05
1.03316e-05
9.23408e-06
7.94286e-06
6.80139e-06
5.65087e-06
4.70237e-06
3.56417e-06
2.86848e-06
1.91362e-06
1.32914e-06
4.87461e-07
3.5934e-07
2.76407e-08
5.85454e-08
7.95328e-09
2.45292e-08
1.88082e-09
1.26407e-08
8.95212e-10
1.83387e-09
6.48707e-10
3.08415e-09
5.36507e-11
4.91943e-09
3.17426e-10
2.8654e-08
2.48689e-09
5.86846e-08
3.41234e-08
1.23774e-07
7.52048e-08
2.37648e-07
1.18603e-07
3.21295e-07
1.70709e-07
2.9513e-07
1.88773e-07
3.21561e-07
2.79414e-07
3.52655e-07
2.40323e-07
2.97302e-07
1.34193e-07
2.7242e-07
1.28635e-07
1.94963e-07
1.04974e-07
2.19986e-07
1.24111e-07
1.92653e-07
7.18871e-08
6.70745e-08
3.95132e-08
1.4527e-07
1.94195e-07
3.64562e-07
2.73492e-07
2.28625e-07
1.70017e-07
2.52986e-07
4.26551e-07
2.86141e-07
3.68162e-07
6.29524e-08
9.54766e-08
3.90922e-08
1.35814e-06
9.43678e-07
6.25856e-07
2.40081e-07
1.1722e-08
2.85573e-08
4.85006e-09
1.21277e-08
1.87609e-09
7.35392e-09
5.25746e-10
2.86825e-09
8.64493e-10
5.86145e-09
1.70511e-10
1.8791e-09
2.0153e-10
2.21264e-09
3.2136e-11
7.55719e-10
1.56916e-11
1.73032e-09
1.89027e-10
5.89517e-09
5.87316e-10
7.75094e-09
3.01044e-10
4.44293e-09
4.21158e-11
2.77726e-09
5.72451e-12
3.57685e-09
3.31351e-12
4.26621e-09
2.80839e-13
3.1391e-09
2.44951e-14
2.08248e-09
8.62652e-12
4.36866e-09
7.45784e-11
7.37167e-09
2.73334e-10
1.59289e-08
4.86671e-09
1.15378e-06
2.17557e-08
1.49178e-06
2.94739e-07
1.50547e-06
1.01615e-06
2.85275e-06
3.39051e-06
4.46401e-06
4.67915e-06
6.71066e-06
7.53434e-06
1.00635e-05
1.04512e-05
1.30151e-05
1.34882e-05
1.63076e-05