/*--------------------------------*- C++ -*----------------------------------*\
| =========                 |                                                 |
| \\      /  F ield         | OpenFOAM: The Open Source CFD Toolbox           |
|  \\    /   O peration     | Version:  v2006                                 |
|   \\  /    A nd           | Website:  www.openfoam.com                      |
|    \\/     M anipulation  |                                                 |
\*---------------------------------------------------------------------------*/
FoamFile
{
    version     2.0;
    format      ascii;
    class       volScalarField;
    location    "220";
    object      nuTilda;
}
// * * * * * * * * * * * * * * * * * * * * * * * * * * * * * * * * * * * * * //

dimensions      [0 2 -1 0 0 0 0];


internalField   nonuniform List<scalar> 
93840
(
4.13648e-07
4.16389e-07
4.1365e-07
4.16115e-07
4.07366e-07
4.28437e-07
4.16521e-07
4.21248e-07
4.23925e-07
4.91932e-07
5.6109e-07
3.76578e-07
1.95965e-07
3.16541e-07
5.88224e-07
7.91003e-07
8.26522e-07
8.71273e-07
9.6396e-07
1.85761e-06
7.05323e-06
2.3287e-05
4.39375e-05
4.84139e-05
4.09709e-05
3.51988e-05
2.54615e-05
2.14817e-05
1.85025e-05
1.7262e-05
1.59433e-05
1.47892e-05
1.51634e-05
1.43605e-05
1.44585e-05
1.41643e-05
1.40305e-05
1.39086e-05
1.37129e-05
1.36469e-05
1.34619e-05
1.34119e-05
1.32391e-05
1.31888e-05
1.30221e-05
1.296e-05
1.28038e-05
1.27511e-05
1.2607e-05
1.25433e-05
1.2413e-05
1.23575e-05
1.22125e-05
1.21368e-05
1.20528e-05
1.20544e-05
1.19421e-05
1.18775e-05
1.17441e-05
1.16911e-05
1.16122e-05
1.15476e-05
1.14535e-05
1.14416e-05
1.1375e-05
1.13429e-05
1.12992e-05
1.12953e-05
1.12407e-05
1.1235e-05
1.12054e-05
1.11993e-05
1.11773e-05
1.1193e-05
1.11733e-05
1.11947e-05
1.11915e-05
1.12137e-05
1.1232e-05
1.1265e-05
1.12765e-05
1.13089e-05
1.13329e-05
1.13901e-05
1.14381e-05
1.14898e-05
1.15459e-05
1.16004e-05
1.16539e-05
1.1718e-05
1.18099e-05
1.19095e-05
1.20083e-05
1.21162e-05
1.22311e-05
1.23609e-05
1.24916e-05
1.26253e-05
1.27671e-05
1.29256e-05
1.30883e-05
1.32458e-05
1.34142e-05
1.37512e-05
1.40783e-05
1.41492e-05
1.42135e-05
1.44676e-05
1.47376e-05
1.50063e-05
1.52705e-05
1.55326e-05
1.57924e-05
1.61108e-05
1.63976e-05
1.66794e-05
1.69343e-05
1.72362e-05
1.74652e-05
1.77018e-05
1.78789e-05
1.80929e-05
1.81742e-05
1.83133e-05
1.8322e-05
1.82656e-05
1.8318e-05
1.81368e-05
1.81699e-05
1.80526e-05
1.79502e-05
1.7841e-05
1.77102e-05
1.76376e-05
1.75388e-05
1.74237e-05
1.73037e-05
1.72085e-05
1.71237e-05
1.70452e-05
1.69686e-05
1.68853e-05
1.67583e-05
1.66813e-05
1.65928e-05
1.65157e-05
1.64388e-05
1.63512e-05
1.62338e-05
1.61124e-05
1.59927e-05
1.58727e-05
1.5731e-05
1.55895e-05
1.54297e-05
1.52781e-05
1.50618e-05
1.48511e-05
1.46357e-05
1.44312e-05
1.41854e-05
1.39367e-05
1.36653e-05
1.33729e-05
1.30123e-05
1.25614e-05
1.20567e-05
1.15729e-05
1.09583e-05
9.53215e-06
6.29489e-06
1.94754e-06
3.39653e-06
8.43235e-06
5.06486e-06
2.86618e-07
1.78946e-07
1.26921e-06
6.66099e-07
5.06947e-07
1.51896e-07
1.16738e-06
6.23596e-07
6.42665e-07
3.16464e-07
1.62323e-07
9.14381e-06
1.50281e-05
2.00135e-06
5.96313e-06
1.97892e-05
2.46663e-05
2.24423e-05
2.37985e-05
2.77485e-05
3.07866e-05
3.23159e-05
3.27985e-05
3.27905e-05
3.29621e-05
3.27253e-05
3.26795e-05
3.23459e-05
3.22043e-05
3.19932e-05
3.18326e-05
3.15096e-05
3.13449e-05
3.09642e-05
3.08046e-05
3.04123e-05
3.0326e-05
2.99927e-05
2.99384e-05
2.96332e-05
2.95578e-05
2.92364e-05
2.91447e-05
2.88391e-05
2.87597e-05
2.86398e-05
2.86192e-05
2.83165e-05
2.82461e-05
2.79367e-05
2.78315e-05
2.75535e-05
2.74874e-05
2.72159e-05
2.71187e-05
2.69082e-05
2.70649e-05
2.6873e-05
2.70014e-05
2.68641e-05
2.6864e-05
2.6683e-05
2.66643e-05
2.64764e-05
2.64485e-05
2.63498e-05
2.6324e-05
2.62888e-05
2.62162e-05
2.6315e-05
2.62146e-05
2.62643e-05
2.61779e-05
2.62172e-05
2.50616e-05
2.13963e-05
1.27553e-05
6.14001e-06
6.62827e-06
6.28621e-06
6.77136e-06
6.63721e-06
6.9933e-06
6.93511e-06
7.09965e-06
7.01222e-06
7.00991e-06
6.86053e-06
6.73975e-06
6.51401e-06
6.30148e-06
6.04301e-06
5.7455e-06
5.32059e-06
4.95763e-06
4.73951e-06
4.47877e-06
4.10903e-06
3.8886e-06
3.81039e-06
3.72278e-06
3.62749e-06
3.54859e-06
3.47543e-06
3.40318e-06
3.32977e-06
3.26081e-06
3.22208e-06
3.19181e-06
3.15493e-06
3.12976e-06
3.09269e-06
3.07041e-06
3.03346e-06
3.01461e-06
2.98078e-06
2.9777e-06
2.97458e-06
3.04619e-06
3.08073e-06
3.18618e-06
3.21734e-06
3.32248e-06
3.34222e-06
3.43847e-06
3.44595e-06
3.53186e-06
3.52862e-06
3.60473e-06
3.59158e-06
3.65761e-06
3.63658e-06
3.6931e-06
3.66395e-06
3.71033e-06
3.67431e-06
3.709e-06
3.66566e-06
3.69348e-06
3.64417e-06
3.66392e-06
3.60672e-06
3.61433e-06
3.54439e-06
3.54043e-06
3.45734e-06
3.44132e-06
3.34341e-06
3.31544e-06
3.23946e-06
3.29061e-06
3.3811e-06
3.49949e-06
3.62028e-06
3.77788e-06
3.92428e-06
4.09788e-06
4.37142e-06
5.04835e-06
5.95852e-06
6.40562e-06
1.49546e-05
2.59575e-05
3.50237e-05
4.09339e-05
4.66412e-05
4.58647e-05
4.85596e-05
4.63339e-05
4.9672e-05
4.70081e-05
2.78573e-05
9.05482e-06
2.38864e-06
1.01602e-06
8.40292e-07
8.1531e-07
7.91738e-07
5.88405e-07
3.19183e-07
1.94212e-07
3.71798e-07
5.5915e-07
4.93338e-07
4.22968e-07
4.16808e-07
4.17327e-07
4.28779e-07
4.0865e-07
4.1485e-07
4.11773e-07
4.14201e-07
4.13819e-07
4.13811e-07
4.15979e-07
4.11515e-07
4.14437e-07
4.08842e-07
4.27329e-07
4.1618e-07
4.15721e-07
4.21146e-07
4.92219e-07
5.60824e-07
3.79552e-07
1.97935e-07
3.11617e-07
5.76732e-07
7.85521e-07
8.06559e-07
8.20427e-07
9.09615e-07
1.50264e-06
5.04528e-06
1.84936e-05
3.94977e-05
4.9109e-05
4.58805e-05
4.4593e-05
3.85282e-05
3.20453e-05
2.69953e-05
2.28153e-05
2.03115e-05
1.85052e-05
1.78221e-05
1.75722e-05
1.79994e-05
1.72512e-05
1.80378e-05
1.71095e-05
1.80001e-05
1.70403e-05
1.79144e-05
1.70007e-05
1.78335e-05
1.69956e-05
1.77521e-05
1.70012e-05
1.76596e-05
1.69998e-05
1.75775e-05
1.70109e-05
1.74964e-05
1.7021e-05
1.74356e-05
1.70047e-05
1.7328e-05
1.70007e-05
1.73357e-05
1.70635e-05
1.7312e-05
1.70312e-05
1.72415e-05
1.70592e-05
1.72197e-05
1.70481e-05
1.72068e-05
1.70754e-05
1.71882e-05
1.70979e-05
1.72114e-05
1.71345e-05
1.72264e-05
1.71753e-05
1.72477e-05
1.72219e-05
1.72933e-05
1.72702e-05
1.73352e-05
1.73228e-05
1.73882e-05
1.73979e-05
1.74609e-05
1.7469e-05
1.75226e-05
1.75431e-05
1.76059e-05
1.76376e-05
1.76895e-05
1.77287e-05
1.77736e-05
1.78015e-05
1.78447e-05
1.7888e-05
1.79371e-05
1.7979e-05
1.80228e-05
1.80643e-05
1.81101e-05
1.81501e-05
1.81858e-05
1.82225e-05
1.82536e-05
1.82726e-05
1.82664e-05
1.82953e-05
1.83614e-05
1.83924e-05
1.83595e-05
1.83466e-05
1.83497e-05
1.83503e-05
1.83397e-05
1.83254e-05
1.8302e-05
1.82792e-05
1.82334e-05
1.81915e-05
1.81317e-05
1.80717e-05
1.79679e-05
1.78792e-05
1.77536e-05
1.76346e-05
1.74585e-05
1.73227e-05
1.71157e-05
1.69613e-05
1.67554e-05
1.65736e-05
1.63813e-05
1.6166e-05
1.59851e-05
1.57717e-05
1.55895e-05
1.53833e-05
1.51816e-05
1.49915e-05
1.48013e-05
1.4612e-05
1.44149e-05
1.42123e-05
1.40007e-05
1.38005e-05
1.36007e-05
1.34038e-05
1.31813e-05
1.29691e-05
1.27331e-05
1.24946e-05
1.2229e-05
1.19743e-05
1.16943e-05
1.13918e-05
1.10425e-05
1.06885e-05
1.03073e-05
9.85993e-06
9.33773e-06
8.86921e-06
8.35162e-06
7.66174e-06
6.87844e-06
6.31737e-06
5.83245e-06
5.01853e-06
3.69651e-06
2.45255e-06
2.1245e-06
2.67763e-06
2.75597e-06
1.73953e-06
4.44181e-07
1.16002e-07
5.73031e-07
4.82941e-07
4.46124e-07
2.26645e-07
7.86868e-07
6.64415e-07
7.18521e-07
8.86692e-07
3.54009e-07
9.40985e-07
1.14393e-06
1.57145e-06
1.24619e-06
9.35017e-07
1.37633e-06
1.24655e-06
3.25419e-07
4.71839e-07
4.47585e-06
5.4486e-06
2.52318e-06
2.87315e-06
4.91915e-06
6.9168e-06
1.0286e-05
1.26941e-05
1.31611e-05
1.4463e-05
1.60605e-05
1.75017e-05
1.84607e-05
1.91526e-05
1.99061e-05
2.08612e-05
2.14772e-05
2.21414e-05
2.25045e-05
2.2998e-05
2.31372e-05
2.34763e-05
2.36063e-05
2.39746e-05
2.41255e-05
2.43747e-05
2.44425e-05
2.46435e-05
2.47286e-05
2.49173e-05
2.49563e-05
2.5152e-05
2.5255e-05
2.54276e-05
2.55348e-05
2.56967e-05
2.58001e-05
2.59192e-05
2.59825e-05
2.61056e-05
2.62021e-05
2.63456e-05
2.64029e-05
2.65579e-05
2.65207e-05
2.6826e-05
2.67888e-05
2.71461e-05
2.70356e-05
2.74214e-05
2.72278e-05
2.77462e-05
2.73701e-05
2.80507e-05
2.75537e-05
2.82994e-05
2.77687e-05
2.84495e-05
2.82046e-05
2.83144e-05
2.69909e-05
2.41413e-05
2.96641e-05
3.42757e-05
3.48802e-05
3.39649e-05
3.32196e-05
3.21544e-05
3.13424e-05
3.03957e-05
2.96244e-05
2.88122e-05
2.81255e-05
2.74228e-05
2.6811e-05
2.62215e-05
2.56851e-05
2.50921e-05
2.46209e-05
2.42811e-05
2.38581e-05
2.33451e-05
2.29048e-05
2.26008e-05
2.2244e-05
2.18394e-05
2.14407e-05
2.1124e-05
2.07954e-05
2.04763e-05
2.01418e-05
1.98242e-05
1.94984e-05
1.92133e-05
1.89017e-05
1.86514e-05
1.83534e-05
1.81293e-05
1.78459e-05
1.76521e-05
1.73871e-05
1.72223e-05
1.6973e-05
1.68304e-05
1.65978e-05
1.64717e-05
1.62557e-05
1.61503e-05
1.59564e-05
1.58687e-05
1.56948e-05
1.56153e-05
1.54579e-05
1.53914e-05
1.52623e-05
1.52117e-05
1.51092e-05
1.50739e-05
1.49987e-05
1.49811e-05
1.49406e-05
1.49416e-05
1.4937e-05
1.49745e-05
1.50155e-05
1.50995e-05
1.51985e-05
1.53385e-05
1.54999e-05
1.57147e-05
1.59615e-05
1.62702e-05
1.66204e-05
1.70301e-05
1.74846e-05
1.79879e-05
1.8539e-05
1.91264e-05
1.98417e-05
2.05497e-05
2.1376e-05
2.22375e-05
2.35082e-05
2.5412e-05
2.79035e-05
3.25783e-05
4.48399e-05
5.96966e-05
7.42223e-05
8.5937e-05
9.48767e-05
9.53859e-05
9.40739e-05
8.23797e-05
7.14272e-05
5.54568e-05
3.24383e-05
1.1885e-05
3.03386e-06
1.14274e-06
8.94788e-07
8.2694e-07
7.95913e-07
5.96762e-07
3.24859e-07
1.92676e-07
3.6819e-07
5.59251e-07
4.93062e-07
4.26028e-07
4.22444e-07
4.17757e-07
4.29702e-07
4.07587e-07
4.16037e-07
4.13921e-07
4.13703e-07
4.13172e-07
4.14089e-07
4.17591e-07
4.13768e-07
4.15489e-07
4.08504e-07
4.25591e-07
4.15555e-07
4.20446e-07
4.21897e-07
4.90223e-07
5.62944e-07
3.84122e-07
2.00436e-07
3.10047e-07
5.7654e-07
7.85686e-07
8.22476e-07
8.54738e-07
8.84127e-07
1.20287e-06
3.58097e-06
1.38216e-05
3.36427e-05
4.67857e-05
4.54031e-05
4.5417e-05
4.2764e-05
3.93648e-05
3.64235e-05
3.34683e-05
3.15202e-05
3.0071e-05
2.89456e-05
2.90441e-05
2.86478e-05
2.85227e-05
2.85131e-05
2.82728e-05
2.84024e-05
2.81245e-05
2.8294e-05
2.80247e-05
2.82189e-05
2.79521e-05
2.81564e-05
2.78845e-05
2.80873e-05
2.78191e-05
2.80305e-05
2.77617e-05
2.79752e-05
2.77101e-05
2.79141e-05
2.76256e-05
2.7836e-05
2.76208e-05
2.78724e-05
2.76427e-05
2.78138e-05
2.75457e-05
2.77146e-05
2.75106e-05
2.76451e-05
2.74554e-05
2.76026e-05
2.74276e-05
2.7543e-05
2.74094e-05
2.75197e-05
2.73895e-05
2.74783e-05
2.73618e-05
2.74289e-05
2.73418e-05
2.73974e-05
2.73039e-05
2.73476e-05
2.72603e-05
2.73023e-05
2.72356e-05
2.72569e-05
2.71723e-05
2.71742e-05
2.71018e-05
2.71047e-05
2.70318e-05
2.70046e-05
2.69223e-05
2.68563e-05
2.6744e-05
2.66642e-05
2.65668e-05
2.64768e-05
2.63586e-05
2.62469e-05
2.61138e-05
2.59914e-05
2.58357e-05
2.56774e-05
2.55025e-05
2.53113e-05
2.50861e-05
2.48266e-05
2.46159e-05
2.44831e-05
2.42804e-05
2.3952e-05
2.36419e-05
2.3354e-05
2.30504e-05
2.27323e-05
2.24005e-05
2.20574e-05
2.17008e-05
2.13278e-05
2.09597e-05
2.05877e-05
2.01971e-05
1.97783e-05
1.93857e-05
1.89859e-05
1.85728e-05
1.81596e-05
1.77761e-05
1.73692e-05
1.70018e-05
1.65967e-05
1.62498e-05
1.58195e-05
1.54697e-05
1.50787e-05
1.4705e-05
1.43329e-05
1.39361e-05
1.3548e-05
1.3183e-05
1.27971e-05
1.24054e-05
1.19907e-05
1.1559e-05
1.11136e-05
1.06966e-05
1.02612e-05
9.80195e-06
9.30069e-06
8.80813e-06
8.28845e-06
7.76571e-06
7.1857e-06
6.56217e-06
5.86036e-06
5.21526e-06
4.70287e-06
4.28826e-06
3.65445e-06
2.85982e-06
2.46028e-06
2.48221e-06
2.03171e-06
1.24267e-06
9.85912e-07
1.04639e-06
8.58946e-07
7.9225e-07
7.07354e-07
5.97951e-07
6.84269e-07
5.5519e-07
2.96803e-07
4.90354e-07
6.82967e-07
7.56647e-07
7.76864e-07
8.30459e-07
8.22156e-07
7.8896e-07
5.04416e-07
4.45334e-07
6.07273e-07
8.42726e-07
2.51818e-07
1.19286e-06
1.53929e-06
1.20179e-06
1.12178e-06
1.08603e-06
1.02811e-06
1.40967e-06
8.64617e-07
7.36739e-07
1.58543e-06
1.67282e-06
4.25964e-07
3.93223e-07
1.47882e-06
1.46462e-06
1.6592e-06
2.30708e-06
2.07675e-06
3.1244e-06
3.84708e-06
4.14505e-06
4.68202e-06
5.1683e-06
5.96112e-06
7.14935e-06
8.19206e-06
9.58202e-06
1.07903e-05
1.21009e-05
1.29801e-05
1.40703e-05
1.49545e-05
1.61182e-05
1.7109e-05
1.80029e-05
1.86694e-05
1.93446e-05
1.99595e-05
2.06286e-05
2.11918e-05
2.17806e-05
2.24375e-05
2.29917e-05
2.36321e-05
2.41202e-05
2.47813e-05
2.51755e-05
2.57121e-05
2.60385e-05
2.66663e-05
2.7155e-05
2.76328e-05
2.81001e-05
2.82667e-05
2.89435e-05
2.91442e-05
2.99463e-05
3.00306e-05
3.08348e-05
3.07746e-05
3.18323e-05
3.14701e-05
3.26879e-05
3.2268e-05
3.33989e-05
3.30024e-05
3.39607e-05
3.39896e-05
3.4244e-05
3.47759e-05
3.08376e-05
3.85979e-05
4.80427e-05
5.35917e-05
5.63781e-05
5.79705e-05
5.87273e-05
5.89784e-05
5.88151e-05
5.83895e-05
5.77649e-05
5.70656e-05
5.62604e-05
5.54556e-05
5.46487e-05
5.3867e-05
5.28983e-05
5.20543e-05
5.15306e-05
5.08962e-05
4.99798e-05
4.91089e-05
4.85572e-05
4.79477e-05
4.72116e-05
4.64598e-05
4.58609e-05
4.52217e-05
4.4604e-05
4.39356e-05
4.33112e-05
4.26602e-05
4.20911e-05
4.14587e-05
4.09424e-05
4.03235e-05
3.98521e-05
3.92582e-05
3.88491e-05
3.82919e-05
3.7944e-05
3.74252e-05
3.7135e-05
3.66563e-05
3.64097e-05
3.59626e-05
3.57553e-05
3.53514e-05
3.51756e-05
3.48084e-05
3.46439e-05
3.43077e-05
3.41646e-05
3.38896e-05
3.37769e-05
3.35488e-05
3.34527e-05
3.32767e-05
3.32088e-05
3.30974e-05
3.30686e-05
3.30262e-05
3.30521e-05
3.30892e-05
3.31916e-05
3.33341e-05
3.35436e-05
3.38121e-05
3.41547e-05
3.45756e-05
3.508e-05
3.56751e-05
3.63632e-05
3.71458e-05
3.80172e-05
3.89996e-05
4.00561e-05
4.12466e-05
4.25014e-05
4.39184e-05
4.53286e-05
4.72721e-05
4.9246e-05
5.2303e-05
5.67371e-05
6.47255e-05
8.38396e-05
0.000103876
0.000121867
0.000136155
0.000142287
0.000143619
0.000131488
0.00011514
8.40909e-05
4.23178e-05
1.49078e-05
4.08274e-06
1.25914e-06
8.62836e-07
8.19147e-07
7.99577e-07
5.97229e-07
3.30448e-07
1.91066e-07
3.62557e-07
5.56568e-07
4.94314e-07
4.24183e-07
4.17202e-07
4.18489e-07
4.29602e-07
4.08241e-07
4.15916e-07
4.12675e-07
4.11181e-07
4.13617e-07
4.14082e-07
4.16146e-07
4.11398e-07
4.13865e-07
4.11173e-07
4.24655e-07
4.15122e-07
4.15402e-07
4.19788e-07
4.91019e-07
5.62838e-07
3.86674e-07
2.02201e-07
3.06611e-07
5.66114e-07
7.78106e-07
8.04591e-07
8.16856e-07
8.82664e-07
1.08304e-06
2.52876e-06
1.02913e-05
2.81071e-05
4.40105e-05
4.52443e-05
4.59258e-05
4.52163e-05
4.26696e-05
4.1185e-05
3.92478e-05
3.80778e-05
3.70541e-05
3.66184e-05
3.60629e-05
3.60017e-05
3.56319e-05
3.57016e-05
3.54107e-05
3.55237e-05
3.5274e-05
3.53896e-05
3.51732e-05
3.529e-05
3.50927e-05
3.52036e-05
3.50177e-05
3.51197e-05
3.49434e-05
3.50427e-05
3.48707e-05
3.49702e-05
3.4795e-05
3.4891e-05
3.47046e-05
3.48165e-05
3.46623e-05
3.48029e-05
3.46299e-05
3.47224e-05
3.45085e-05
3.4598e-05
3.44166e-05
3.4499e-05
3.43197e-05
3.44091e-05
3.42373e-05
3.43099e-05
3.4159e-05
3.42243e-05
3.40727e-05
3.41162e-05
3.39666e-05
3.39926e-05
3.38592e-05
3.38685e-05
3.37237e-05
3.37168e-05
3.35713e-05
3.35577e-05
3.34193e-05
3.33788e-05
3.32164e-05
3.31506e-05
3.299e-05
3.29104e-05
3.27374e-05
3.26138e-05
3.2415e-05
3.22396e-05
3.20037e-05
3.1803e-05
3.1567e-05
3.13411e-05
3.10734e-05
3.08122e-05
3.05149e-05
3.02287e-05
2.98938e-05
2.9559e-05
2.9191e-05
2.88015e-05
2.83712e-05
2.79183e-05
2.74899e-05
2.71133e-05
2.6677e-05
2.61392e-05
2.5597e-05
2.50608e-05
2.45029e-05
2.39329e-05
2.33453e-05
2.2759e-05
2.21423e-05
2.15187e-05
2.09045e-05
2.03106e-05
1.96722e-05
1.90278e-05
1.84177e-05
1.78298e-05
1.7197e-05
1.66233e-05
1.60461e-05
1.54878e-05
1.49406e-05
1.44057e-05
1.38837e-05
1.33058e-05
1.28059e-05
1.22448e-05
1.17365e-05
1.1195e-05
1.06491e-05
1.00839e-05
9.56657e-06
8.98555e-06
8.39846e-06
7.74632e-06
7.0521e-06
6.31747e-06
5.62208e-06
4.90537e-06
4.19511e-06
3.52708e-06
3.04079e-06
2.64533e-06
2.28584e-06
1.90957e-06
1.5683e-06
1.20473e-06
9.61719e-07
9.26074e-07
1.03671e-06
9.43048e-07
7.33808e-07
7.44974e-07
7.98536e-07
6.36853e-07
6.43335e-07
6.85155e-07
5.86556e-07
5.61381e-07
6.36025e-07
5.82931e-07
6.4713e-07
6.21782e-07
5.56634e-07
5.92409e-07
5.67034e-07
5.78227e-07
7.5409e-07
6.87911e-07
5.82529e-07
5.02222e-07
5.18558e-07
7.88058e-07
9.06448e-07
9.09768e-07
9.02384e-07
2.82428e-07
1.48806e-06
1.40726e-06
1.11152e-06
1.02499e-06
9.88945e-07
7.80999e-07
8.49906e-07
6.6596e-07
6.29728e-07
8.83198e-07
9.61815e-07
4.25235e-07
4.36561e-07
9.82231e-07
1.05398e-06
3.53425e-07
7.3416e-07
7.27986e-07
7.92143e-07
8.50025e-07
8.61805e-07
8.66087e-07
1.15893e-06
1.06025e-06
1.25848e-06
1.37155e-06
1.90219e-06
2.02792e-06
2.73183e-06
3.12524e-06
3.7757e-06
4.37112e-06
5.44172e-06
6.72989e-06
7.88363e-06
8.91152e-06
9.89679e-06
1.10123e-05
1.22138e-05
1.34682e-05
1.4578e-05
1.58892e-05
1.6868e-05
1.80693e-05
1.88628e-05
2.00263e-05
2.06779e-05
2.16426e-05
2.21537e-05
2.32111e-05
2.40489e-05
2.49476e-05
2.57348e-05
2.61623e-05
2.71059e-05
2.76152e-05
2.86832e-05
2.90927e-05
3.00672e-05
3.03461e-05
3.15771e-05
3.16011e-05
3.28498e-05
3.29955e-05
3.39708e-05
3.42739e-05
3.48694e-05
3.57187e-05
3.5784e-05
3.82223e-05
3.55599e-05
4.27914e-05
5.42458e-05
6.32031e-05
6.87887e-05
7.2561e-05
7.506e-05
7.67085e-05
7.77398e-05
7.82672e-05
7.84772e-05
7.84511e-05
7.82381e-05
7.79032e-05
7.7527e-05
7.7116e-05
7.63813e-05
7.56602e-05
7.54592e-05
7.52122e-05
7.43982e-05
7.34317e-05
7.29251e-05
7.24707e-05
7.17479e-05
7.08696e-05
7.01674e-05
6.94424e-05
6.87252e-05
6.79127e-05
6.71555e-05
6.6336e-05
6.55986e-05
6.47789e-05
6.41004e-05
6.32812e-05
6.26385e-05
6.18342e-05
6.12606e-05
6.04926e-05
5.99896e-05
5.92655e-05
5.88339e-05
5.81515e-05
5.77774e-05
5.71346e-05
5.68098e-05
5.62207e-05
5.59428e-05
5.53963e-05
5.51261e-05
5.46147e-05
5.43813e-05
5.39588e-05
5.37703e-05
5.34076e-05
5.32324e-05
5.29357e-05
5.27992e-05
5.25959e-05
5.25198e-05
5.2417e-05
5.24084e-05
5.24065e-05
5.24983e-05
5.2644e-05
5.28923e-05
5.32261e-05
5.36634e-05
5.42049e-05
5.48579e-05
5.56311e-05
5.65308e-05
5.75578e-05
5.87074e-05
5.9982e-05
6.13575e-05
6.28667e-05
6.44587e-05
6.6179e-05
6.79383e-05
6.99324e-05
7.22877e-05
7.54917e-05
7.99304e-05
8.80245e-05
0.000104245
0.000127595
0.000149411
0.00016782
0.000179405
0.000184781
0.000175465
0.000158949
0.000120334
6.54335e-05
1.96359e-05
5.07164e-06
1.48624e-06
9.28371e-07
8.31208e-07
8.04486e-07
6.0705e-07
3.37118e-07
1.90675e-07
3.591e-07
5.5695e-07
4.94434e-07
4.27277e-07
4.22727e-07
4.18694e-07
4.30816e-07
4.06978e-07
4.17522e-07
4.14643e-07
4.12285e-07
4.13514e-07
4.14061e-07
4.19174e-07
4.12956e-07
4.14679e-07
4.10911e-07
4.23698e-07
4.1479e-07
4.19848e-07
4.20535e-07
4.89397e-07
5.64768e-07
3.90832e-07
2.04679e-07
3.06975e-07
5.64921e-07
7.77384e-07
8.17277e-07
8.40039e-07
8.65924e-07
9.63745e-07
1.81171e-06
7.13328e-06
2.23221e-05
3.98817e-05
4.41028e-05
4.53707e-05
4.63731e-05
4.5009e-05
4.44259e-05
4.32703e-05
4.2664e-05
4.20045e-05
4.16551e-05
4.13124e-05
4.11434e-05
4.0935e-05
4.0867e-05
4.07216e-05
4.07011e-05
4.05848e-05
4.05831e-05
4.04812e-05
4.04914e-05
4.03932e-05
4.04095e-05
4.03099e-05
4.03295e-05
4.02271e-05
4.02491e-05
4.0143e-05
4.01686e-05
4.00531e-05
4.00789e-05
3.99554e-05
3.99949e-05
3.98821e-05
3.99365e-05
3.98059e-05
3.98312e-05
3.96648e-05
3.96852e-05
3.95291e-05
3.95499e-05
3.93879e-05
3.94108e-05
3.9248e-05
3.9261e-05
3.91013e-05
3.91039e-05
3.89354e-05
3.89175e-05
3.87396e-05
3.87039e-05
3.85271e-05
3.8471e-05
3.82757e-05
3.81993e-05
3.79941e-05
3.79033e-05
3.76906e-05
3.75689e-05
3.7326e-05
3.7173e-05
3.69155e-05
3.67319e-05
3.64499e-05
3.6209e-05
3.58862e-05
3.55874e-05
3.52207e-05
3.48824e-05
3.44956e-05
3.41185e-05
3.36897e-05
3.32635e-05
3.2791e-05
3.23272e-05
3.18034e-05
3.12833e-05
3.07135e-05
3.01211e-05
2.94863e-05
2.88396e-05
2.81699e-05
2.75256e-05
2.68608e-05
2.61356e-05
2.53689e-05
2.45958e-05
2.3796e-05
2.29935e-05
2.21727e-05
2.13738e-05
2.05222e-05
1.96842e-05
1.88603e-05
1.80853e-05
1.723e-05
1.6406e-05
1.56114e-05
1.48727e-05
1.40384e-05
1.33377e-05
1.25736e-05
1.18851e-05
1.11609e-05
1.05215e-05
9.80541e-06
9.09622e-06
8.3925e-06
7.6352e-06
6.92311e-06
6.14949e-06
5.38401e-06
4.58874e-06
3.94723e-06
3.2733e-06
2.7162e-06
2.09591e-06
1.59372e-06
1.19816e-06
1.01434e-06
7.6296e-07
6.56471e-07
5.8486e-07
6.59997e-07
6.09083e-07
6.47205e-07
6.03081e-07
6.64915e-07
6.14424e-07
6.75012e-07
6.3054e-07
7.43814e-07
7.38438e-07
7.41267e-07
6.76302e-07
6.39302e-07
6.38385e-07
7.07498e-07
5.86284e-07
5.85886e-07
5.44498e-07
5.63855e-07
5.86049e-07
5.84027e-07
4.43043e-07
4.25241e-07
4.84831e-07
5.68964e-07
6.81287e-07
5.94745e-07
5.4714e-07
5.41629e-07
6.87838e-07
8.14072e-07
1.02419e-06
9.46804e-07
4.94949e-07
5.07232e-07
4.88704e-08
1.42641e-06
1.54398e-06
1.22166e-06
1.31176e-06
1.03942e-06
9.63691e-07
8.73231e-07
7.33697e-07
7.33485e-07
8.53593e-07
7.12646e-07
3.44322e-07
5.22949e-07
8.55073e-07
7.24128e-07
3.87629e-07
5.66209e-07
7.01358e-07
6.55553e-07
5.85854e-07
5.69581e-07
5.79195e-07
5.54938e-07
6.16353e-07
5.89746e-07
6.75104e-07
7.3663e-07
5.94323e-07
6.89585e-07
6.77342e-07
5.1681e-07
7.14482e-07
6.89776e-07
1.19107e-06
1.36897e-06
1.88504e-06
1.89429e-06
2.48509e-06
2.98833e-06
3.97626e-06
4.65026e-06
6.20372e-06
7.32009e-06
9.07953e-06
1.01431e-05
1.18796e-05
1.28589e-05
1.43231e-05
1.50813e-05
1.65858e-05
1.77943e-05
1.91267e-05
2.02335e-05
2.09974e-05
2.21179e-05
2.30556e-05
2.42635e-05
2.5178e-05
2.6144e-05
2.69708e-05
2.81267e-05
2.88278e-05
2.98113e-05
3.08282e-05
3.14063e-05
3.25997e-05
3.27876e-05
3.44096e-05
3.4135e-05
3.83678e-05
3.78576e-05
4.45939e-05
5.61955e-05
6.75015e-05
7.55788e-05
8.16352e-05
8.60111e-05
8.92827e-05
9.17061e-05
9.34374e-05
9.47152e-05
9.56261e-05
9.62692e-05
9.66935e-05
9.70273e-05
9.72835e-05
9.71275e-05
9.68455e-05
9.72112e-05
9.7668e-05
9.7353e-05
9.66147e-05
9.64121e-05
9.64412e-05
9.60995e-05
9.53959e-05
9.483e-05
9.42823e-05
9.37236e-05
9.30208e-05
9.23404e-05
9.15525e-05
9.08299e-05
8.99981e-05
8.93017e-05
8.84357e-05
8.7738e-05
8.68444e-05
8.61871e-05
8.53053e-05
8.47041e-05
8.38532e-05
8.33209e-05
8.25004e-05
8.20208e-05
8.1235e-05
8.08083e-05
8.00786e-05
7.97033e-05
7.90117e-05
7.86401e-05
7.79775e-05
7.76533e-05
7.70989e-05
7.68325e-05
7.63379e-05
7.60761e-05
7.56498e-05
7.54345e-05
7.51218e-05
7.49841e-05
7.4793e-05
7.47309e-05
7.46554e-05
7.47073e-05
7.4818e-05
7.50707e-05
7.54275e-05
7.59178e-05
7.6531e-05
7.72848e-05
7.81808e-05
7.92294e-05
8.04323e-05
8.1777e-05
8.32604e-05
8.48536e-05
8.6568e-05
8.83725e-05
9.02737e-05
9.22512e-05
9.4414e-05
9.68053e-05
9.99545e-05
0.000104339
0.000111953
0.000125471
0.000148962
0.000173303
0.000195122
0.000211672
0.000221784
0.000217036
0.000202808
0.000160734
0.000103856
2.75626e-05
6.75875e-06
1.68288e-06
9.16557e-07
8.26672e-07
8.0891e-07
6.07732e-07
3.4244e-07
1.8938e-07
3.54085e-07
5.54355e-07
4.9546e-07
4.25199e-07
4.17529e-07
4.1961e-07
4.31452e-07
4.08329e-07
4.16648e-07
4.12943e-07
4.10002e-07
4.13996e-07
4.145e-07
4.17329e-07
4.12061e-07
4.14832e-07
4.1274e-07
4.22944e-07
4.14445e-07
4.14869e-07
4.18809e-07
4.89658e-07
5.65089e-07
3.9347e-07
2.05894e-07
3.03582e-07
5.56381e-07
7.6937e-07
8.01352e-07
8.10632e-07
8.81717e-07
9.40607e-07
1.31641e-06
4.75087e-06
1.65086e-05
3.44638e-05
4.18461e-05
4.37502e-05
4.60716e-05
4.57372e-05
4.58703e-05
4.54067e-05
4.5184e-05
4.48817e-05
4.46931e-05
4.45187e-05
4.43921e-05
4.42865e-05
4.42109e-05
4.4141e-05
4.40977e-05
4.40435e-05
4.40168e-05
4.39678e-05
4.39515e-05
4.39004e-05
4.38893e-05
4.38341e-05
4.38245e-05
4.37641e-05
4.37542e-05
4.36876e-05
4.36776e-05
4.36012e-05
4.35898e-05
4.35056e-05
4.34989e-05
4.34127e-05
4.34104e-05
4.33087e-05
4.32876e-05
4.31573e-05
4.31266e-05
4.29917e-05
4.29578e-05
4.28103e-05
4.2772e-05
4.26156e-05
4.25658e-05
4.23983e-05
4.23337e-05
4.21478e-05
4.20618e-05
4.18567e-05
4.17478e-05
4.15286e-05
4.13954e-05
4.11498e-05
4.09917e-05
4.07254e-05
4.05434e-05
4.02554e-05
4.00391e-05
3.97138e-05
3.94586e-05
3.90991e-05
3.87967e-05
3.83999e-05
3.80281e-05
3.7578e-05
3.71457e-05
3.6644e-05
3.61557e-05
3.56129e-05
3.5074e-05
3.44779e-05
3.38771e-05
3.32247e-05
3.25767e-05
3.18604e-05
3.11527e-05
3.03789e-05
2.9585e-05
2.8748e-05
2.79064e-05
2.69825e-05
2.60747e-05
2.52012e-05
2.4308e-05
2.33316e-05
2.23452e-05
2.13249e-05
2.03192e-05
1.92956e-05
1.83179e-05
1.72606e-05
1.62475e-05
1.52498e-05
1.4328e-05
1.32844e-05
1.23243e-05
1.13709e-05
1.05037e-05
9.46254e-06
8.6259e-06
7.62379e-06
6.75816e-06
5.78852e-06
5.01777e-06
4.1095e-06
3.40736e-06
2.74511e-06
2.18113e-06
1.69013e-06
1.23365e-06
8.20451e-07
5.9834e-07
5.74164e-07
3.99882e-07
3.26463e-07
2.22436e-07
2.40719e-07
2.6345e-07
3.39158e-07
3.51449e-07
5.07755e-07
4.96273e-07
5.95841e-07
6.2044e-07
6.75366e-07
7.05051e-07
7.42633e-07
6.9448e-07
7.48686e-07
7.37759e-07
8.2653e-07
7.72911e-07
7.84748e-07
7.8053e-07
6.96114e-07
7.2625e-07
6.66354e-07
6.12598e-07
5.73497e-07
6.06695e-07
6.27508e-07
6.52162e-07
6.08141e-07
6.11259e-07
5.5249e-07
6.31022e-07
5.60715e-07
6.79777e-07
6.3787e-07
7.22959e-07
5.66928e-07
6.42391e-07
5.42618e-07
6.67092e-07
8.95978e-07
6.33828e-07
5.7716e-07
1.6809e-07
1.87882e-06
1.39598e-06
1.022e-06
8.15139e-07
3.9739e-07
3.47163e-07
2.14923e-07
2.08564e-07
1.72131e-07
2.94672e-07
1.96264e-07
1.15631e-07
2.04575e-07
3.86138e-07
1.60171e-07
7.97046e-08
1.69322e-07
3.3012e-07
2.56022e-07
3.01238e-07
2.52757e-07
3.35647e-07
2.35754e-07
2.67574e-07
2.00966e-07
2.25783e-07
2.5801e-07
2.53273e-07
2.21188e-07
2.17486e-07
1.44904e-07
1.98995e-07
1.41086e-07
2.62376e-07
1.2982e-07
3.98348e-07
3.88224e-07
8.41274e-07
4.08236e-07
1.09069e-06
4.71237e-07
1.4182e-06
9.97737e-07
2.16451e-06
2.13853e-06
3.40712e-06
3.66016e-06
5.06058e-06
5.40148e-06
6.95656e-06
8.37089e-06
1.02215e-05
1.16982e-05
1.29962e-05
1.42978e-05
1.58755e-05
1.71357e-05
1.8763e-05
1.95693e-05
2.11446e-05
2.20038e-05
2.36323e-05
2.41394e-05
2.62404e-05
2.62657e-05
2.85046e-05
2.81492e-05
3.07205e-05
3.00181e-05
3.57971e-05
3.80975e-05
4.471e-05
5.51122e-05
6.74803e-05
7.74765e-05
8.57478e-05
9.20583e-05
9.71218e-05
0.000101094
0.000104229
0.000106751
0.000108789
0.000110461
0.000111825
0.000113027
0.000114103
0.000114719
0.000115082
0.000116102
0.000117326
0.000117703
0.000117438
0.000117686
0.000118318
0.000118557
0.00011827
0.000118046
0.000117871
0.00011768
0.000117309
0.000116922
0.000116394
0.000115896
0.000115268
0.000114753
0.000114052
0.000113481
0.000112696
0.000112108
0.000111291
0.000110717
0.000109894
0.000109358
0.00010854
0.000108033
0.00010723
0.00010676
0.000106002
0.000105577
0.000104839
0.000104404
0.000103682
0.000103294
0.000102685
0.000102363
0.000101806
0.000101485
0.000100982
0.000100707
0.000100321
0.000100136
9.98697e-05
9.97559e-05
9.96036e-05
9.96029e-05
9.96525e-05
9.98835e-05
0.000100223
0.000100729
0.000101362
0.000102162
0.000103122
0.000104257
0.000105561
0.000107023
0.000108625
0.00011034
0.000112161
0.000114052
0.000116027
0.000118066
0.000120247
0.000122663
0.00012561
0.000129806
0.000136851
0.000148419
0.000168328
0.000194561
0.000219085
0.000239795
0.000254602
0.000255217
0.000244701
0.000201977
0.000149073
4.46808e-05
8.99048e-06
2.12946e-06
1.01163e-06
8.42324e-07
8.13958e-07
6.1915e-07
3.5117e-07
1.90168e-07
3.50065e-07
5.54659e-07
4.95736e-07
4.28635e-07
4.23131e-07
4.19444e-07
4.31929e-07
4.06995e-07
4.17137e-07
4.15784e-07
4.11388e-07
4.13471e-07
4.14319e-07
4.1658e-07
4.13762e-07
4.15002e-07
4.13286e-07
4.2311e-07
4.14068e-07
4.19514e-07
4.19356e-07
4.87846e-07
5.66917e-07
3.98008e-07
2.08331e-07
3.04759e-07
5.56451e-07
7.67543e-07
8.13526e-07
8.28607e-07
8.52818e-07
8.92473e-07
1.03604e-06
2.91918e-06
1.12985e-05
2.79651e-05
3.83687e-05
4.11282e-05
4.43082e-05
4.50654e-05
4.56298e-05
4.58314e-05
4.58678e-05
4.59311e-05
4.58836e-05
4.59079e-05
4.58562e-05
4.58668e-05
4.58272e-05
4.5833e-05
4.58049e-05
4.5807e-05
4.57859e-05
4.57834e-05
4.57665e-05
4.57571e-05
4.5742e-05
4.57245e-05
4.57085e-05
4.56825e-05
4.56632e-05
4.56282e-05
4.56048e-05
4.55592e-05
4.55304e-05
4.54748e-05
4.54413e-05
4.5376e-05
4.53387e-05
4.52587e-05
4.52065e-05
4.51035e-05
4.50358e-05
4.49179e-05
4.48385e-05
4.47014e-05
4.4609e-05
4.44549e-05
4.43434e-05
4.41661e-05
4.40345e-05
4.38288e-05
4.36723e-05
4.34375e-05
4.32501e-05
4.29879e-05
4.27707e-05
4.24736e-05
4.22261e-05
4.18969e-05
4.16149e-05
4.12509e-05
4.09301e-05
4.05208e-05
4.01517e-05
3.96873e-05
3.92559e-05
3.87414e-05
3.82292e-05
3.7652e-05
3.70785e-05
3.64404e-05
3.57942e-05
3.50948e-05
3.43878e-05
3.36234e-05
3.28439e-05
3.20134e-05
3.11803e-05
3.02741e-05
2.93821e-05
2.84076e-05
2.74186e-05
2.63864e-05
2.53547e-05
2.4182e-05
2.30368e-05
2.19817e-05
2.09422e-05
1.9781e-05
1.86145e-05
1.7404e-05
1.62308e-05
1.50383e-05
1.39135e-05
1.26779e-05
1.15123e-05
1.03406e-05
9.2454e-06
7.95822e-06
6.82234e-06
5.68117e-06
4.7457e-06
3.63734e-06
2.97585e-06
2.11367e-06
1.63045e-06
9.85158e-07
8.77305e-07
4.10785e-07
5.01831e-07
2.96548e-07
3.95819e-07
2.04869e-07
3.315e-07
1.69104e-07
2.02051e-07
1.55165e-07
2.29147e-07
8.27319e-08
2.56731e-07
1.28511e-07
4.02482e-07
2.14598e-07
4.85884e-07
4.1862e-07
5.98109e-07
5.1718e-07
7.30125e-07
5.87294e-07
8.06587e-07
6.52589e-07
7.79346e-07
6.70627e-07
7.99947e-07
7.603e-07
8.23887e-07
7.19439e-07
7.71666e-07
5.95668e-07
7.44626e-07
5.85204e-07
6.63335e-07
5.48219e-07
6.86434e-07
5.72781e-07
6.53415e-07
4.86403e-07
4.74812e-07
4.09825e-07
5.90733e-07
6.46192e-07
8.003e-07
7.19714e-07
6.73366e-07
6.10128e-07
6.92094e-07
8.37773e-07
7.18012e-07
7.85353e-07
4.47153e-07
5.0093e-07
3.92308e-07
1.55559e-06
1.23486e-06
1.00025e-06
7.00002e-07
3.06213e-07
4.00518e-07
2.62807e-07
3.42958e-07
2.16589e-07
3.15459e-07
1.67334e-07
2.62248e-07
1.96673e-07
3.29413e-07
1.39737e-07
2.53712e-07
1.46399e-07
2.70088e-07
9.4573e-08
2.08188e-07
7.90028e-08
2.55844e-07
1.471e-07
3.48122e-07
1.94833e-07
3.71827e-07
1.64222e-07
3.21574e-07
9.98925e-08
2.84317e-07
6.04121e-08
3.02394e-07
5.2654e-08
3.16037e-07
2.83957e-08
2.92021e-07
1.5383e-08
2.62946e-07
6.65e-08
3.17324e-07
1.14492e-07
3.62402e-07
1.58227e-07
4.40845e-07
3.25433e-07
1.69245e-06
4.75959e-07
1.94698e-06
9.85047e-07
1.95905e-06
1.58635e-06
3.0783e-06
3.56224e-06
4.5743e-06
4.77881e-06
6.76292e-06
7.57549e-06
1.00877e-05
1.04731e-05
1.30299e-05
1.35018e-05
1.63173e-05