/*--------------------------------*- C++ -*----------------------------------*\
| =========                 |                                                 |
| \\      /  F ield         | OpenFOAM: The Open Source CFD Toolbox           |
|  \\    /   O peration     | Version:  v2006                                 |
|   \\  /    A nd           | Website:  www.openfoam.com                      |
|    \\/     M anipulation  |                                                 |
\*---------------------------------------------------------------------------*/
FoamFile
{
    version     2.0;
    format      ascii;
    class       volScalarField;
    location    "220";
    object      p;
}
// * * * * * * * * * * * * * * * * * * * * * * * * * * * * * * * * * * * * * //

dimensions      [1 -1 -2 0 0 0 0];


internalField   nonuniform List<scalar> 
93840
(
0.946603
1.01637
0.985365
1.0332
0.980882
1.03675
0.986125
1.03291
0.989043
1.02295
0.994329
1.02033
1.0041
1.02464
1.01459
1.03054
1.02629
1.03513
1.0282
1.02946
1.0205
1.0193
1.0104
1.0076
1.00127
0.997908
0.994617
0.995318
0.991075
0.99375
0.986149
1.01574
0.985305
0.999251
1.00406
1.01334
1.01467
1.02262
1.02355
1.03092
1.0309
1.03637
1.03716
1.04164
1.04244
1.04677
1.04808
1.05158
1.05258
1.05628
1.05727
1.06023
1.06145
1.06508
1.06612
1.06696
1.06689
1.07118
1.07266
1.07324
1.07259
1.07566
1.07743
1.07833
1.07831
1.07956
1.07907
1.0788
1.07955
1.0802
1.07975
1.07957
1.07931
1.07917
1.07895
1.07821
1.0773
1.07646
1.07543
1.07442
1.07348
1.07223
1.07099
1.06925
1.06757
1.06582
1.06393
1.06198
1.06005
1.05781
1.05507
1.05207
1.04921
1.04605
1.04279
1.03906
1.03535
1.03149
1.02751
1.02313
1.01862
1.0141
1.00959
1.0014
0.992846
0.990137
0.987979
0.981651
0.974715
0.967871
0.961295
0.954849
0.948786
0.941269
0.934677
0.928203
0.922816
0.916326
0.912057
0.907503
0.905234
0.901708
0.902277
0.901258
0.90443
0.909143
0.91087
0.919898
0.92198
0.929236
0.934945
0.941978
0.949308
0.955804
0.961279
0.969263
0.975618
0.983396
0.987953
0.994974
0.999613
1.00606
1.01234
1.01943
1.02447
1.03098
1.03524
1.04132
1.04705
1.0544
1.06033
1.06748
1.07375
1.08001
1.08753
1.09422
1.10202
1.10939
1.11802
1.12603
1.13382
1.14082
1.14998
1.15932
1.16861
1.17885
1.18969
1.20081
1.21214
1.22322
1.23708
1.25185
1.26675
1.28054
1.29503
1.31451
1.33134
1.35379
1.3678
1.38519
1.37817
1.36322
1.29096
1.19626
1.02981
0.877415
0.72383
0.629786
0.608286
0.6549
0.586364
0.540448
0.501791
0.471642
0.455957
0.449772
0.439845
0.437363
0.43842
0.435688
0.440979
0.445211
0.447583
0.450467
0.453864
0.4588
0.463469
0.467207
0.471824
0.475072
0.479331
0.481114
0.483675
0.484684
0.486141
0.487394
0.490095
0.490916
0.492986
0.493436
0.489774
0.490831
0.49286
0.493661
0.495856
0.497796
0.498955
0.500161
0.501975
0.503599
0.502931
0.497685
0.497267
0.493451
0.490584
0.49112
0.490184
0.48971
0.490179
0.48884
0.488199
0.486572
0.485527
0.483692
0.481102
0.477964
0.478645
0.472987
0.479795
0.503827
0.5843
0.709465
0.763952
0.782111
0.800806
0.812826
0.826339
0.835612
0.845886
0.853569
0.861939
0.868725
0.87584
0.881926
0.888088
0.893606
0.898876
0.903876
0.90864
0.91319
0.917126
0.92084
0.924421
0.927831
0.930939
0.933827
0.936479
0.939029
0.941383
0.94359
0.945658
0.947541
0.949351
0.950945
0.952517
0.953861
0.955226
0.956344
0.957567
0.958516
0.959654
0.960429
0.961505
0.962125
0.963137
0.963602
0.964563
0.96485
0.965774
0.965892
0.966803
0.966766
0.967686
0.967521
0.968475
0.968209
0.969205
0.968846
0.969895
0.969473
0.970576
0.970102
0.97127
0.970712
0.971929
0.971335
0.972619
0.97201
0.973379
0.972673
0.974112
0.973367
0.974872
0.974032
0.97571
0.974921
0.976784
0.975815
0.977181
0.977571
0.978504
0.975887
0.980562
0.975711
0.980895
0.975128
0.971772
0.978104
0.98652
0.989728
0.993886
0.998152
1.00377
1.00648
1.01057
1.01262
1.0196
1.02096
1.0296
1.0282
1.03514
1.02647
1.03043
1.01467
1.02475
1.00413
1.02031
0.994411
1.02275
0.989172
1.03279
0.986041
1.03662
0.980575
1.03239
0.984842
1.0163
0.946208
0.946023
1.01634
0.984881
1.03239
0.98055
1.0366
0.986033
1.03286
0.988967
1.02295
0.994424
1.02034
1.0041
1.02481
1.01469
1.03024
1.02656
1.03497
1.0283
1.02929
1.02113
1.01955
1.01247
1.01053
1.00633
1.00411
0.997549
0.994699
0.992188
0.991493
0.988472
0.98973
0.99313
1.00122
1.00548
1.01177
1.01541
1.02104
1.02346
1.02938
1.0302
1.03543
1.03643
1.04105
1.04175
1.04621
1.04717
1.05108
1.05198
1.05576
1.05667
1.05991
1.0609
1.06415
1.06526
1.06659
1.06677
1.0709
1.07198
1.07255
1.07236
1.07532
1.07687
1.07776
1.07791
1.07909
1.07875
1.07858
1.07933
1.07991
1.07946
1.07929
1.07904
1.07893
1.07875
1.07799
1.07709
1.07626
1.07526
1.07427
1.07332
1.07206
1.07082
1.06911
1.06745
1.0657
1.06382
1.06187
1.05992
1.05767
1.05496
1.05199
1.04913
1.04598
1.04273
1.03901
1.03531
1.03145
1.02748
1.02312
1.01863
1.01408
1.0095
1.00148
0.993163
0.990298
0.987926
0.981649
0.974849
0.96804
0.961502
0.955069
0.949012
0.941565
0.935048
0.928596
0.923222
0.916838
0.912609
0.908127
0.905889
0.902528
0.90303
0.902115
0.905135
0.909822
0.911731
0.92031
0.922592
0.929957
0.935424
0.942648
0.94979
0.95638
0.961746
0.969818
0.976016
0.983833
0.988253
0.995403
1.00005
1.00643
1.01277
1.01973
1.02492
1.03156
1.03594
1.04199
1.0479
1.05504
1.06104
1.06819
1.07445
1.0808
1.08839
1.09518
1.1031
1.11042
1.11894
1.12727
1.13516
1.14233
1.15177
1.16113
1.17032
1.18086
1.19163
1.20319
1.21489
1.22691
1.24113
1.2552
1.26891
1.28355
1.29802
1.31383
1.33011
1.34943
1.36031
1.37691
1.36676
1.35121
1.29439
1.23761
1.12587
0.994211
0.867276
0.748297
0.684283
0.703013
0.64036
0.587975
0.539022
0.501451
0.48169
0.468565
0.455335
0.449897
0.447976
0.4429
0.44781
0.450591
0.452891
0.455446
0.457891
0.461596
0.46621
0.469939
0.474193
0.477314
0.481503
0.483052
0.48548
0.486279
0.487641
0.488719
0.491198
0.492326
0.49426
0.494586
0.490988
0.491856
0.493653
0.494373
0.496482
0.498308
0.499502
0.500671
0.50242
0.504138
0.503491
0.498232
0.498156
0.493953
0.491186
0.491749
0.490439
0.489869
0.490525
0.489404
0.488853
0.486864
0.485669
0.484146
0.481591
0.478032
0.478965
0.473405
0.480074
0.504091
0.584227
0.709916
0.764468
0.78221
0.800811
0.812787
0.826309
0.835581
0.845876
0.853559
0.861938
0.868731
0.875857
0.881946
0.888114
0.893637
0.898912
0.903923
0.908683
0.913217
0.917153
0.920878
0.924466
0.927871
0.930971
0.93386
0.936518
0.939069
0.941422
0.94363
0.945699
0.947631
0.949395
0.950981
0.952549
0.953891
0.955254
0.956371
0.957593
0.95854
0.959678
0.960452
0.961527
0.962146
0.963158
0.963621
0.964581
0.964868
0.965791
0.965907
0.966818
0.966782
0.967703
0.967537
0.968487
0.968218
0.969212
0.968854
0.969903
0.96948
0.970578
0.970098
0.971262
0.970707
0.971927
0.971331
0.972603
0.971974
0.973311
0.972607
0.974057
0.973299
0.974852
0.973988
0.975465
0.97471
0.976197
0.975132
0.976565
0.976048
0.97702
0.976164
0.977241
0.974739
0.977251
0.969187
0.98215
0.975593
0.981767
0.981007
0.987384
0.990179
0.994918
0.9996
1.00624
1.00971
1.0191
1.02037
1.02971
1.02828
1.03519
1.02628
1.03064
1.01458
1.02453
1.00417
1.02025
0.994374
1.02278
0.989058
1.03282
0.986132
1.03675
0.98078
1.03311
0.9854
1.01645
0.946599
0.94663
1.01646
0.985357
1.03322
0.980811
1.03672
0.986237
1.03279
0.989031
1.02295
0.994506
1.02039
1.00418
1.02468
1.01492
1.0301
1.02654
1.03483
1.02808
1.0291
1.0207
1.01952
1.01105
1.00888
1.00274
1.00029
0.997795
0.999717
0.99605
0.99822
0.999578
1.00347
0.993757
1.01096
1.005
1.0162
1.01477
1.02291
1.02324
1.02976
1.03023
1.03545
1.0363
1.04103
1.04165
1.04614
1.04707
1.05097
1.05183
1.05558
1.05641
1.05963
1.06059
1.06382
1.06491
1.06643
1.06681
1.07018
1.07144
1.0726
1.07279
1.07519
1.07623
1.07726
1.0777
1.07878
1.07878
1.07867
1.07903
1.07966
1.07923
1.07919
1.07892
1.07882
1.07854
1.07786
1.07696
1.07616
1.07518
1.07416
1.07321
1.07195
1.07071
1.06901
1.06737
1.06562
1.06375
1.0618
1.05985
1.05759
1.05489
1.05193
1.04907
1.04593
1.04268
1.03897
1.03528
1.03143
1.02746
1.0231
1.01862
1.01407
1.00947
1.0015
0.993306
0.990371
0.987938
0.981661
0.974911
0.96812
0.961597
0.955189
0.949134
0.941737
0.935265
0.928847
0.923481
0.91709
0.912965
0.908483
0.906245
0.902873
0.903628
0.902593
0.905623
0.910385
0.912237
0.920863
0.923317
0.930354
0.935923
0.942985
0.949855
0.956686
0.962193
0.97013
0.976325
0.984111
0.988617
0.995631
1.00045
1.00695
1.01302
1.02021
1.02519
1.03173
1.03601
1.04237
1.04799
1.05562
1.06165
1.06878
1.07525
1.08156
1.08884
1.09562
1.10359
1.11091
1.11986
1.12784
1.13589
1.14335
1.15263
1.16216
1.17164
1.18178
1.19248
1.20307
1.21481
1.22664
1.24061
1.25485
1.26936
1.28395
1.29879
1.31756
1.33176
1.3537
1.36352
1.3828
1.37239
1.36603
1.30314
1.23949
1.1312
1.00214
0.871576
0.76467
0.703086
0.711699
0.646735
0.601412
0.552684
0.516745
0.491224
0.475618
0.463858
0.456431
0.453408
0.449487
0.451159
0.453184
0.45589
0.458198
0.460628
0.463712
0.468258
0.471613
0.475755
0.478817
0.482806
0.484168
0.486699
0.487509
0.488405
0.489702
0.491762
0.493279
0.494955
0.495556
0.491561
0.492298
0.494102
0.494808
0.49682
0.498746
0.499792
0.500994
0.502772
0.504302
0.504137
0.498773
0.498157
0.494426
0.491581
0.4917
0.490798
0.490452
0.490744
0.489618
0.488578
0.487231
0.486483
0.484151
0.481539
0.478875
0.47959
0.473498
0.479544
0.503349
0.583394
0.708577
0.764872
0.782694
0.8009
0.812798
0.826345
0.83561
0.845921
0.853604
0.861978
0.868761
0.875881
0.881981
0.888143
0.893663
0.89895
0.903954
0.908714
0.913242
0.91717
0.920905
0.924499
0.927891
0.930989
0.933879
0.936538
0.939088
0.941437
0.943637
0.945701
0.947534
0.94939
0.950984
0.952556
0.953899
0.955262
0.95638
0.957602
0.958549
0.959687
0.960461
0.961536
0.962154
0.963165
0.963627
0.964587
0.964873
0.965796
0.965912
0.966823
0.966786
0.967707
0.96754
0.96849
0.968221
0.969214
0.968855
0.969903
0.969478
0.970576
0.970095
0.971258
0.970701
0.97192
0.971318
0.972592
0.971961
0.973304
0.972602
0.974057
0.973286
0.974874
0.974031
0.975587
0.974983
0.976639
0.975239
0.977593
0.976267
0.978332
0.978145
0.97888
0.975436
0.978188
0.975712
0.97926
0.975539
0.98182
0.985102
0.990295
0.995299
1.0016
1.00571
1.00976
1.01249
1.01969
1.02088
1.02998
1.02827
1.03526
1.02644
1.03051
1.01458
1.02478
1.00413
1.02025
0.994521
1.02279
0.989149
1.03281
0.985974
1.03667
0.980547
1.03256
0.984991
1.01629
0.94632
0.945982
1.01629
0.984794
1.03242
0.980609
1.0365
0.98619
1.03272
0.989415
1.02284
0.994581
1.02034
1.00419
1.02497
1.01469
1.03018
1.02665
1.03461
1.02829
1.02897
1.02142
1.01964
1.01272
1.0109
1.00671
1.00517
0.999807
0.998416
0.996079
0.996335
0.994882
0.999605
1.00057
1.00567
1.00839
1.01369
1.01613
1.02196
1.0231
1.02938
1.02953
1.03504
1.03577
1.04048
1.04122
1.04555
1.04666
1.05042
1.05157
1.05511
1.05608
1.05927
1.06017
1.06335
1.06421
1.06606
1.06656
1.06958
1.07053
1.07213
1.07299
1.07502
1.07567
1.07652
1.07724
1.0783
1.07848
1.0786
1.07893
1.07932
1.07895
1.07894
1.07867
1.07861
1.07837
1.07764
1.07677
1.076
1.07503
1.07403
1.07306
1.0718
1.07056
1.06889
1.06725
1.06551
1.06365
1.06169
1.05973
1.05747
1.05479
1.05186
1.049
1.04586
1.04262
1.03893
1.03524
1.03139
1.02743
1.0231
1.01863
1.01406
1.00943
1.0016
0.993551
0.990535
0.987889
0.981695
0.975044
0.968293
0.961804
0.955414
0.94938
0.942035
0.935625
0.929215
0.923834
0.917586
0.913445
0.90909
0.906871
0.903681
0.904255
0.903456
0.906165
0.910856
0.912945
0.920947
0.923574
0.930869
0.936315
0.943609
0.95044
0.95731
0.962565
0.970764
0.976682
0.984535
0.988801
0.996016
1.00072
1.00703
1.01343
1.02029
1.02567
1.03238
1.03705
1.04308
1.04904
1.05599
1.06218
1.06919
1.07562
1.08223
1.08964
1.09645
1.10459
1.1119
1.12027
1.12885
1.13664
1.14428
1.15397
1.16343
1.17303
1.18351
1.19386
1.20519
1.2165
1.22884
1.24282
1.25686
1.27063
1.28564
1.29966
1.31697
1.33152
1.34832
1.35921
1.37295
1.36444
1.34816
1.30885
1.25367
1.16469
1.05494
0.941784
0.832718
0.753777
0.745532
0.683087
0.632004
0.578241
0.535467
0.510719
0.490142
0.474558
0.466826
0.46169
0.454204
0.454981
0.457838
0.459407
0.461772
0.463643
0.466581
0.470557
0.473665
0.477431
0.480497
0.48486
0.486184
0.488151
0.488827
0.49009
0.490929
0.493032
0.494744
0.495918
0.496665
0.49302
0.493382
0.494858
0.495528
0.497578
0.499187
0.500411
0.501497
0.503197
0.504886
0.504611
0.499203
0.499484
0.494849
0.492268
0.492415
0.491182
0.490645
0.491105
0.490187
0.489286
0.487352
0.486205
0.485197
0.482386
0.478518
0.479638
0.474054
0.479839
0.502834
0.582449
0.708595
0.76613
0.783225
0.80111
0.812897
0.826388
0.835653
0.845975
0.853635
0.862001
0.868799
0.875933
0.882013
0.888197
0.893732
0.898998
0.90404
0.908789
0.913288
0.917229
0.92097
0.924572
0.927967
0.931046
0.933935
0.936608
0.939158
0.941504
0.943711
0.945778
0.947708
0.949465
0.951053
0.952616
0.953954
0.955314
0.956429
0.95765
0.958594
0.959731
0.960503
0.961576
0.962192
0.963202
0.963663
0.964621
0.964906
0.965827
0.965942
0.966852
0.966814
0.967735
0.967565
0.968513
0.96824
0.969232
0.96887
0.969917
0.969488
0.970584
0.970097
0.971255
0.970688
0.971901
0.971293
0.972566
0.971927
0.973263
0.97253
0.973925
0.973127
0.974628
0.973681
0.975242
0.974433
0.975905
0.974905
0.976385
0.975042
0.976817
0.975697
0.977841
0.974501
0.977389
0.97319
0.978997
0.974216
0.979051
0.977834
0.983416
0.986672
0.992499
0.998244
1.00515
1.00925
1.01898
1.0203
1.03006
1.02818
1.03547
1.0262
1.03078
1.0146
1.02448
1.00422
1.02017
0.99452
1.02282
0.989118
1.03289
0.986109
1.03685
0.980828
1.0331
0.985514
1.01648
0.946592
0.94659
1.01656
0.985213
1.03313
0.980828
1.03664
0.986476
1.03267
0.989148
1.02276
0.9946
1.02027
1.00436
1.02471
1.01498
1.03
1.02678
1.03446
1.02833
1.02876
1.02094
1.01969
1.01166
1.00992
1.00395
1.00248
1.00007
1.00231
0.999541
1.00285
1.00189
1.00657
1.00235
1.01238
1.00848
1.01796
1.01591
1.02397
1.02312
1.03004
1.02954
1.03547
1.03556
1.04073
1.04113
1.0456
1.0466
1.05037
1.05147
1.05493
1.05587
1.05903
1.05989
1.06302
1.06386
1.06581
1.06652
1.06882
1.06996
1.07227
1.07335
1.07479
1.07499
1.07613
1.07693
1.07796
1.0784
1.0786
1.07861
1.07895
1.07872
1.07888
1.07852
1.07841
1.07811
1.07744
1.0766
1.07585
1.0749
1.07386
1.0729
1.07164
1.07041
1.06875
1.06713
1.06539
1.06354
1.06159
1.05963
1.05736
1.05469
1.05177
1.04892
1.04579
1.04255
1.03888
1.0352
1.03136
1.0274
1.02307
1.01862
1.01405
1.00939
1.00161
0.993705
0.990674
0.9879
0.98171
0.975126
0.968393
0.961933
0.955571
0.949535
0.942262
0.935924
0.929567
0.924226
0.917965
0.913966
0.909565
0.907408
0.904184
0.904908
0.903893
0.906936
0.911542
0.913637
0.921885
0.924592
0.931593
0.93689
0.944131
0.950577
0.957579
0.963093
0.970925
0.977041
0.984742
0.989192
0.996295
1.00119
1.00766
1.01367
1.02097
1.0258
1.03254
1.03684
1.04325
1.04899
1.05668
1.06273
1.06992
1.07646
1.08279
1.08991
1.09688
1.10512
1.11236
1.12134
1.1292
1.13757
1.14531
1.15441
1.16395
1.1733
1.18379
1.1948
1.20554
1.21694
1.22869
1.24216
1.256
1.27044
1.28513
1.29922
1.3169
1.32913
1.34807
1.35646
1.36915
1.35954
1.34679
1.29882
1.2494
1.16118
1.05711
0.941541
0.841293
0.76627
0.751058
0.690113
0.64344
0.590483
0.551145
0.522006
0.499771
0.484614
0.471667
0.467159
0.463045
0.460358
0.460628
0.463261
0.464965
0.467246
0.468916
0.472734
0.475241
0.479216
0.481779
0.485834
0.487971
0.489652
0.490207
0.491166
0.491929
0.494135
0.495484
0.49691
0.49764
0.494037
0.494238
0.495579
0.496116
0.497944
0.499837
0.500768
0.501944
0.503647
0.505169
0.505333
0.499939
0.499301
0.495498
0.492774
0.492654
0.49127
0.490992
0.49118
0.490641
0.489701
0.488035
0.487349
0.484312
0.482106
0.479589
0.480479
0.473942
0.479007
0.501772
0.580287
0.707448
0.767184
0.784213
0.801452
0.813062
0.826572
0.835774
0.846086
0.853746
0.862101
0.868863
0.875973
0.882092
0.888241
0.893757
0.899072
0.904062
0.90882
0.913332
0.91724
0.921005
0.924614
0.927982
0.931074
0.933964
0.936628
0.939185
0.941528
0.943722
0.945789
0.947627
0.949467
0.951061
0.952628
0.953968
0.955329
0.956445
0.957666
0.95861
0.959747
0.960519
0.961592
0.962207
0.963215
0.963676
0.964633
0.964917
0.965838
0.965953
0.966861
0.966824
0.967743
0.967575
0.968523
0.96825
0.969241
0.968879
0.969924
0.969494
0.97059
0.970102
0.97126
0.970693
0.971907
0.971297
0.972571
0.971929
0.973271
0.972544
0.973961
0.973194
0.974721
0.973802
0.975462
0.974639
0.976362
0.975594
0.977246
0.975438
0.977614
0.976992
0.978273
0.976277
0.977659
0.976126
0.978472
0.97758
0.980706
0.982079
0.986799
0.991255
0.997739
1.00325
1.00824
1.01195
1.01952
1.02092
1.03029
1.02812
1.03564
1.02624
1.03073
1.01457
1.02459
1.00415
1.02016
0.994557
1.02284
0.989124
1.03293
0.986001
1.03669
0.980532
1.03259
0.985109
1.01631
0.946323
0.945873
1.0162
0.984772
1.03262
0.980626
1.03653
0.986198
1.03256
0.989432
1.02263
0.994552
1.02025
1.00421
1.02492
1.01461
1.03014
1.02656
1.03454
1.02829
1.02861
1.02157
1.01982
1.01304
1.01139
1.00722
1.00634
1.00155
1.00116
0.999347
1.00089
1.0003
1.00462
1.005
1.00951
1.01107
1.01604
1.01745
1.0229
1.0238
1.02908
1.02995
1.03439
1.03574
1.03993
1.04095
1.0451
1.04623
1.05004
1.051
1.05461
1.05532
1.05871
1.05941
1.06269
1.06322
1.06552
1.06623
1.06776
1.06894
1.072
1.07366
1.07459
1.07417
1.07537
1.07644
1.07744
1.07794
1.07859
1.07839
1.07844
1.0784
1.0786
1.07822
1.07821
1.07783
1.07719
1.07638
1.07567
1.07473
1.07369
1.07271
1.07146
1.07024
1.06859
1.06698
1.06525
1.0634
1.06145
1.05947
1.05721
1.05456
1.05166
1.04882
1.0457
1.04247
1.03881
1.03514
1.0313
1.02736
1.02306
1.01861
1.01403
1.00935
1.0017
0.993959
0.990836
0.987855
0.981759
0.975271
0.968594
0.962169
0.955838
0.949831
0.942606
0.936342
0.930007
0.924618
0.91852
0.914506
0.910273
0.908033
0.905015
0.905717
0.905055
0.907605
0.912019
0.914272
0.92204
0.924561
0.932003
0.937386
0.94464
0.951272
0.958313
0.96364
0.971793
0.977562
0.985371
0.989714
0.996788
1.00147
1.00783
1.01421
1.02106
1.02659
1.03336
1.03839
1.04427
1.05031
1.0571
1.06348
1.07035
1.07705
1.08368
1.09109
1.0979
1.10613
1.11356
1.1216
1.13013
1.13814
1.14623
1.15581
1.16518
1.17513
1.18509
1.19488
1.20662
1.21852
1.23052
1.24364
1.25709
1.27079
1.28534
1.29886
1.31451
1.32711
1.34222
1.34936
1.36218
1.35343
1.34435
1.30366
1.25914
1.18617
1.09471
0.993108
0.894123
0.814805
0.786051
0.723129
0.673294
0.616681
0.57013
0.542953
0.513777
0.496278
0.484649
0.475904
0.46723
0.465793
0.466478
0.466455
0.468885
0.469703
0.472526
0.474674
0.477613
0.480989
0.483957
0.487194
0.48994
0.490898
0.492049
0.492371
0.493586
0.494973
0.496374
0.498587
0.4992
0.495627
0.495364
0.496403
0.496942
0.498912
0.500282
0.50155
0.502506
0.504191
0.505691
0.506112
0.500766
0.500899
0.495977
0.493556
0.493328
0.492078
0.491757
0.491954
0.491133
0.489532
0.488525
0.487477
0.486126
0.482838
0.479522
0.48077
0.474816
0.479043
0.500745
0.577846
0.706974
0.76926
0.785158
0.801834
0.813321
0.826704
0.835938
0.846234
0.853837
0.862158
0.868954
0.876073
0.882127
0.888326
0.89387
0.8991
0.904173
0.908899
0.913365
0.917327
0.92107
0.924681
0.928076
0.931135
0.934022
0.93671
0.939257
0.9416
0.943809
0.945873
0.947795
0.949555
0.951142
0.952697
0.954033
0.95539
0.956504
0.957722
0.958665
0.9598
0.96057
0.961641
0.962255
0.963261
0.963719
0.964675
0.964957
0.965877
0.965989
0.966898
0.966859
0.967779
0.967606
0.968554
0.968277
0.969269
0.968901
0.969948
0.96951
0.970607
0.970108
0.971266
0.970691
0.971907
0.971275
0.972543
0.971875
0.973205
0.972451
0.973862
0.973042
0.974522
0.973582
0.975058
0.973998
0.975609
0.974678
0.97625
0.97473
0.976668
0.97539
0.977641
0.974932
0.977713
0.974539
0.977931
0.976108
0.979478
0.978266
0.982643
0.985308
0.991122
0.997084
1.0042
1.00886
1.0185
1.02043
1.03045
1.02822
1.0357
1.02629
1.03073
1.01458
1.02443
1.00411
1.01994
0.994617
1.02268
0.989149
1.03282
0.986057
1.03673
0.980792
1.03302
0.985565
1.01647
0.946632
0.946628
1.01649
0.985156
1.03291
0.981005
1.03639
0.986366
1.03246
0.989518
1.02256
0.994622
1.02014
1.00434
1.02476
1.0149
1.03002
1.02676
1.03446
1.02814
1.02843
1.02133
1.01966
1.01235
1.01105
1.00532
1.00456
1.00235
1.00489
1.00283
1.00617
1.00476
1.00951
1.00712
1.01433
1.01181
1.01951
1.01766
1.02488
1.02379
1.03017
1.02975
1.03513
1.03552
1.04018
1.04086
1.04511
1.0461
1.0499
1.05089
1.05437
1.05523
1.05849
1.05925
1.06235
1.06295
1.06505
1.06596
1.0673
1.06851
1.07201
1.0736
1.07418
1.07369
1.07516
1.0761
1.07712
1.07761
1.07833
1.0781
1.07806
1.07822
1.07857
1.07805
1.07788
1.07754
1.07694
1.07618
1.07547
1.07454
1.07349
1.07251
1.07126
1.07004
1.06841
1.06683
1.06509
1.06327
1.06132
1.05934
1.05707
1.05443
1.05155
1.04871
1.0456
1.04239
1.03875
1.03509
1.03126
1.02732
1.02302
1.0186
1.01401
1.00929
1.00172
0.994168
0.990976
0.9879
0.981773
0.975375
0.968724
0.96233
0.956039
0.950015
0.942882
0.936703
0.930436
0.925122
0.919
0.915161
0.910816
0.908697
0.90561
0.906265
0.905413
0.908387
0.912772
0.91502
0.923029
0.92588
0.93294
0.93811
0.945391
0.951632
0.958579
0.964066
0.971731
0.977783
0.985362
0.989793
0.997023
1.00198
1.00845
1.0144
1.02177
1.02656
1.03334
1.03781
1.04427
1.05013
1.05767
1.06387
1.07111
1.07768
1.08422
1.09115
1.09846
1.10654
1.11382
1.12271
1.13061
1.13914
1.14721
1.15585
1.16565
1.17487
1.1854
1.19606
1.207
1.21827
1.22968
1.24311
1.25666
1.27026
1.2844
1.29788
1.3134
1.32415
1.33951
1.34669
1.35933
1.34601
1.33919
1.29437
1.25232
1.17663
1.09292
0.991233
0.899121
0.820975
0.789256
0.727879
0.682342
0.624942
0.587158
0.554748
0.523793
0.507527
0.48935
0.482035
0.474311
0.469454
0.470872
0.470632
0.47213
0.473025
0.475229
0.477106
0.479907
0.482284
0.486329
0.488747
0.491594
0.492577
0.493512
0.493724
0.494714
0.495867
0.497881
0.499349
0.499775
0.496938
0.496233
0.496879
0.497695
0.499259
0.500595
0.502282
0.503035
0.504652
0.506171
0.506489
0.501521
0.500981
0.496741
0.494083
0.493517
0.492413
0.491904
0.491959
0.491723
0.490825
0.488788
0.488105
0.485373
0.48347
0.480399
0.481173
0.47437
0.47839
0.499248
0.574572
0.706049
0.771425
0.786801
0.8025
0.81367
0.827064
0.836168
0.846409
0.854015
0.862323
0.869049
0.876128
0.882266
0.888387
0.893889
0.899234
0.904187
0.908938
0.913443
0.917326
0.921118
0.924739
0.92808
0.931177
0.934065
0.936728
0.939294
0.941634
0.943823
0.945894
0.947739
0.949563
0.951155
0.952717
0.954055
0.955412
0.956528
0.957747
0.958689
0.959824
0.960595
0.961664
0.962278
0.963282
0.963739
0.964693
0.964977
0.965895
0.966009
0.966916
0.966878
0.967795
0.967625
0.968571
0.968297
0.969286
0.968921
0.969964
0.969528
0.970623
0.970126
0.971283
0.970711
0.971925
0.971298
0.97257
0.971909
0.973247
0.972513
0.973938
0.973137
0.974678
0.973813
0.975358
0.974352
0.976086
0.975193
0.976939
0.97577
0.977414
0.97612
0.977918
0.976814
0.978203
0.977051
0.978612
0.978411
0.980412
0.981717
0.985562
0.989153
0.994959
1.00079
1.00662
1.01121
1.01891
1.02123
1.03046
1.02816
1.03594
1.02614
1.03071
1.01452
1.02465
1.00408
1.01997
0.994577
1.02258
0.989193
1.03286
0.986087
1.03676
0.98055
1.03269
0.985365
1.01628
0.946433
0.945805
1.01623
0.984951
1.03251
0.980733
1.03637
0.986228
1.03263
0.989491
1.02263
0.994533
1.0201
1.00427
1.02494
1.01483
1.02981
1.0266
1.03457
1.02801
1.0283
1.02185
1.01975
1.01353
1.01221
1.00822
1.00776
1.00392
1.00414
1.00275
1.00487
1.00457
1.00825
1.00855
1.01262
1.01361
1.01806
1.0191
1.02377
1.02479
1.02922
1.03033
1.03449
1.03549
1.03999
1.04052
1.04488
1.04573
1.04954
1.05042
1.05387
1.05467
1.05806
1.0587
1.06192
1.06233
1.06491
1.0656
1.06645
1.06771
1.07159
1.07329
1.07373
1.07306
1.07454
1.07573
1.07658
1.07691
1.07814
1.07773
1.07754
1.07784
1.07823
1.07769
1.07765
1.07718
1.07664
1.07592
1.07526
1.07435
1.07327
1.07229
1.07102
1.06984
1.06822
1.06664
1.06491
1.06309
1.06114
1.05915
1.05688
1.05427
1.05141
1.04859
1.04549
1.04227
1.03865
1.035
1.03118
1.02726
1.02299
1.01858
1.01401
1.00926
1.00179
0.994412
0.991181
0.987856
0.981822
0.975545
0.968949
0.962601
0.956334
0.950354
0.943268
0.93719
0.93095
0.925597
0.91966
0.915767
0.911646
0.909356
0.90653
0.907276
0.906741
0.909246
0.913173
0.915845
0.923261
0.925659
0.933324
0.938344
0.945764
0.952129
0.959284
0.964734
0.972756
0.978545
0.986328
0.990748
0.997583
1.00228
1.00873
1.01494
1.0218
1.02741
1.03419
1.03945
1.04524
1.05136
1.05809
1.06464
1.07129
1.0784
1.08476
1.09243
1.09924
1.1075
1.11508
1.12309
1.13115
1.13949
1.1479
1.15731
1.16658
1.17631
1.18628
1.19613
1.20793
1.21956
1.23119
1.24408
1.25691
1.27008
1.28406
1.29691
1.31041
1.32193
1.33493
1.33991
1.35055
1.33995
1.33415
1.29802
1.25741
1.19799
1.11865
1.03133
0.941109
0.86273
0.822377
0.759599
0.711249
0.654724
0.608586
0.575747
0.54149
0.519326
0.503914
0.490352
0.482069
0.476783
0.472793
0.474744
0.475152
0.47704
0.477448
0.479997
0.481684
0.484941
0.487683
0.490595
0.493146
0.494341
0.494969
0.495299
0.49614
0.497435
0.499051
0.500534
0.501293
0.498271
0.497587
0.498011
0.498446
0.500174
0.501361
0.502735
0.503538
0.505111
0.506601
0.507772
0.502674
0.50232
0.497096
0.49532
0.494342
0.492725
0.492516
0.493011
0.492093
0.490977
0.490277
0.488912
0.486133
0.483276
0.480844
0.482221
0.475259
0.478383
0.497951
0.570742
0.705419
0.774548
0.788248
0.803097
0.814111
0.827306
0.836481
0.846652
0.854166
0.862412
0.869203
0.876285
0.882299
0.888511
0.894056
0.899228
0.904332
0.909024
0.913457
0.917448
0.921183
0.924794
0.928198
0.931237
0.934121
0.936824
0.939364
0.941704
0.943919
0.945979
0.947887
0.949658
0.951243
0.952789
0.954125
0.955478
0.956593
0.957808
0.958749
0.959882
0.960652
0.961719
0.962331
0.963333
0.963788
0.964741
0.965021
0.965941
0.96605
0.96696
0.966917
0.967838
0.967662
0.968613
0.96833
0.969325
0.96895
0.97
0.96955
0.970653
0.97014
0.971303
0.970712
0.971935
0.971281
0.972562
0.971861
0.973199
0.972416
0.97382
0.972942
0.974461
0.973503
0.975038
0.973956
0.97556
0.974384
0.976183
0.974902
0.976802
0.975012
0.977417
0.975582
0.978254
0.97589
0.978985
0.977534
0.980553
0.97981
0.98333
0.985323
0.990537
0.996146
1.00344
1.00849
1.01783
1.02065
1.03068
1.02812
1.03618
1.02599
1.03107
1.01436
1.0246
1.00418
1.01995
0.994686
1.02257
0.989289
1.0328
0.986135
1.03681
0.980796
1.03308
0.985551
1.01656
0.946595
0.946628
1.01653
0.985215
1.03305
0.98077
1.03665
0.986267
1.0326
0.989486
1.02259
0.994688
1.0201
1.0043
1.02486
1.01492
1.03008
1.02657
1.03426
1.02809
1.02818
1.02177
1.01966
1.01338
1.01181
1.00694
1.00645
1.00464
1.00721
1.0057
1.00897
1.00772
1.01221
1.01069
1.01642
1.01484
1.02103
1.01969
1.02578
1.02495
1.03047
1.03028
1.03513
1.03548
1.04001
1.04047
1.04468
1.04559
1.04918
1.05034
1.05346
1.05458
1.05772
1.05855
1.06155
1.06214
1.06431
1.06521
1.06645
1.06753
1.07112
1.0727
1.07317
1.07277
1.07436
1.07547
1.07629
1.07638
1.07762
1.07734
1.07738
1.07768
1.07808
1.07745
1.07723
1.07683
1.07637
1.07569
1.07499
1.0741
1.07302
1.07203
1.07078
1.06958
1.068
1.06644
1.06472
1.06292
1.06097
1.05898
1.05671
1.0541
1.05127
1.04845
1.04537
1.04217
1.03857
1.03495
1.03114
1.02721
1.02295
1.01856
1.01399
1.0092
1.0018
0.994655
0.991341
0.987921
0.981855
0.975674
0.969108
0.962801
0.956581
0.950576
0.943612
0.937587
0.931494
0.926125
0.920338
0.916339
0.912426
0.909863
0.907112
0.90792
0.907085
0.90974
0.914184
0.916348
0.924168
0.927168
0.934388
0.939433
0.946805
0.952687
0.959765
0.965068
0.972721
0.978449
0.986154
0.990621
0.997898
1.0028
1.00937
1.0153
1.02244
1.02738
1.03406
1.03881
1.04544
1.05125
1.05883
1.0652
1.07237
1.0787
1.08549
1.09216
1.09981
1.1075
1.11527
1.1239
1.13197
1.14027
1.14877
1.15737
1.16706
1.17621
1.18697
1.19741
1.20815
1.21908
1.23027
1.24282
1.25576
1.26912
1.28233
1.29488
1.30817
1.31769
1.33139
1.3357
1.34424
1.33199
1.32548
1.28752
1.24795
1.18509
1.11491
1.02581
0.944803
0.866909
0.824804
0.763918
0.717245
0.65976
0.623687
0.584544
0.55
0.530494
0.508459
0.497893
0.489198
0.481082
0.480355
0.478597
0.478684
0.480223
0.480439
0.482488
0.483957
0.487126
0.489214
0.492838
0.494379
0.496227
0.496337
0.496834
0.497149
0.499066
0.500086
0.501612
0.502403
0.498919
0.498604
0.498788
0.499255
0.500738
0.502021
0.503257
0.504074
0.505575
0.507312
0.507791
0.503265
0.502766
0.497983
0.495337
0.494699
0.493696
0.493054
0.493069
0.492648
0.491664
0.48962
0.489088
0.487206
0.484992
0.481548
0.481928
0.475075
0.477996
0.496238
0.566285
0.704404
0.778024
0.790536
0.804104
0.814636
0.827843
0.836838
0.8469
0.854416
0.862651
0.869332
0.876358
0.88251
0.888588
0.894068
0.899435
0.904334
0.909076
0.913575
0.917428
0.921248
0.924875
0.928185
0.931297
0.934181
0.936836
0.939414
0.941752
0.943935
0.946009
0.947865
0.949671
0.951259
0.952816
0.954151
0.955505
0.956622
0.95784
0.958779
0.959912
0.960682
0.961747
0.962359
0.963359
0.963814
0.964765
0.965047
0.965963
0.966077
0.966982
0.966944
0.967861
0.96769
0.968636
0.968359
0.96935
0.968981
0.970026
0.969582
0.970681
0.970174
0.971334
0.970752
0.971974
0.971329
0.972612
0.971927
0.973275
0.972528
0.973944
0.973125
0.974664
0.973775
0.975392
0.974424
0.976057
0.975001
0.976778
0.975817
0.977476
0.976286
0.977962
0.977125
0.978676
0.977982
0.979436
0.979415
0.981155
0.982278
0.985323
0.988299
0.993362
0.998893
1.00522
1.01038
1.01817
1.02127
1.03076
1.02808
1.0364
1.02608
1.03089
1.01448
1.02459
1.0042
1.01996
0.99469
1.02259
0.989133
1.03279
0.986036
1.03662
0.980461
1.03278
0.985483
1.01626
0.946494
0.945828
1.01616
0.985072
1.03237
0.980866
1.03626
0.986253
1.03283
0.989246
1.02278
0.994502
1.02035
1.00418
1.02492
1.01483
1.02979
1.0269
1.03396
1.02825
1.02812
1.02233
1.01969
1.01423
1.01282
1.00931
1.00943
1.00613
1.00735
1.00601
1.00852
1.00815
1.01159
1.0117
1.01546
1.01591
1.02004
1.02062
1.02499
1.0257
1.02991
1.0307
1.03492
1.03545
1.03994
1.04026
1.04436
1.0452
1.04881
1.04977
1.05308
1.0539
1.05734
1.05773
1.06085
1.06146
1.06391
1.06499
1.06643
1.0671
1.07014
1.07139
1.07252
1.07261
1.07393
1.07512
1.07573
1.07578
1.07694
1.07687
1.07704
1.07721
1.07765
1.07707
1.07686
1.07648
1.076
1.07537
1.07475
1.07385
1.07276
1.07178
1.07051
1.06935
1.06777
1.06622
1.0645
1.0627
1.06075
1.05875
1.05649
1.05391
1.0511
1.0483
1.04523
1.04203
1.03845
1.03483
1.03104
1.02713
1.02291
1.01854
1.01397
1.00917
1.00189
0.994894
0.991552
0.987877
0.981925
0.975866
0.969362
0.963096
0.956902
0.950899
0.944012
0.93804
0.932085
0.926687
0.921026
0.916975
0.913206
0.910533
0.908107
0.908757
0.908337
0.910828
0.914488
0.917556
0.924307
0.92725
0.93443
0.939482
0.946851
0.953056
0.96028
0.96575
0.973746
0.979399
0.987312
0.99157