/*--------------------------------*- C++ -*----------------------------------*\
| =========                 |                                                 |
| \\      /  F ield         | OpenFOAM: The Open Source CFD Toolbox           |
|  \\    /   O peration     | Version:  v2006                                 |
|   \\  /    A nd           | Website:  www.openfoam.com                      |
|    \\/     M anipulation  |                                                 |
\*---------------------------------------------------------------------------*/
FoamFile
{
    version     2.0;
    format      ascii;
    class       volScalarField;
    location    "220";
    object      rho;
}
// * * * * * * * * * * * * * * * * * * * * * * * * * * * * * * * * * * * * * //

dimensions      [1 -3 0 0 0 0 0];


internalField   nonuniform List<scalar> 
93840
(
0.961046
1.01082
0.986685
1.02513
0.982659
1.02439
0.985344
1.0172
0.984586
1.0093
0.986913
1.0072
0.993918
1.01054
1.0019
1.01508
1.01082
1.01837
1.01232
1.01363
1.00544
1.00303
0.990254
0.98296
0.976104
0.973988
0.972973
0.976753
0.975744
0.97421
0.965396
0.982933
0.955699
0.971799
0.969907
0.980986
0.97805
0.987093
0.984781
0.992635
0.990317
0.99629
0.995002
0.999876
0.998946
1.00339
1.00309
1.00669
1.00639
1.00993
1.00977
1.01264
1.01278
1.01596
1.01602
1.01719
1.01663
1.02006
1.02062
1.02138
1.02054
1.02294
1.02378
1.02459
1.02426
1.02525
1.02461
1.02451
1.02474
1.02521
1.02463
1.0245
1.02403
1.02388
1.02345
1.02285
1.02194
1.02123
1.02023
1.01938
1.01843
1.01737
1.01621
1.01476
1.0133
1.01182
1.01018
1.00855
1.00685
1.00498
1.00269
1.00026
0.997865
0.995291
0.99259
0.989585
0.986551
0.983436
0.980193
0.976675
0.973029
0.96936
0.965623
0.959335
0.952951
0.950631
0.948503
0.943474
0.938104
0.932817
0.927787
0.922887
0.918318
0.912769
0.90803
0.903418
0.899706
0.895235
0.892596
0.889782
0.888812
0.886948
0.888335
0.888461
0.891948
0.896281
0.898711
0.906322
0.908834
0.915324
0.920374
0.926618
0.932863
0.938657
0.943624
0.950434
0.955972
0.962598
0.966851
0.972892
0.977211
0.982866
0.988277
0.994223
0.998754
1.00436
1.00835
1.01361
1.01859
1.02477
1.02988
1.03577
1.04104
1.04655
1.05267
1.05784
1.06414
1.07076
1.07764
1.08323
1.08924
1.09548
1.1029
1.1099
1.11641
1.12361
1.13192
1.14038
1.14843
1.15652
1.16631
1.17612
1.18571
1.1948
1.20479
1.21783
1.22847
1.24286
1.2515
1.26255
1.25564
1.25493
1.19586
1.14587
1.01309
0.910908
0.786927
0.713544
0.688769
0.718113
0.658647
0.623418
0.593284
0.560477
0.537445
0.531256
0.52379
0.518603
0.514959
0.510455
0.513718
0.514837
0.51392
0.514729
0.515162
0.517576
0.519487
0.521232
0.523352
0.52495
0.526638
0.526951
0.527324
0.526957
0.526346
0.526684
0.526886
0.526798
0.52643
0.526448
0.521969
0.522215
0.521993
0.522288
0.522272
0.523487
0.522706
0.523818
0.523501
0.524574
0.522355
0.518659
0.51674
0.513992
0.509883
0.509984
0.507876
0.507291
0.506592
0.5054
0.50372
0.502462
0.500896
0.498693
0.496771
0.49287
0.493753
0.487724
0.493288
0.509739
0.566272
0.651843
0.693247
0.710834
0.727694
0.739664
0.752174
0.761601
0.771329
0.779062
0.78696
0.793592
0.800213
0.806006
0.811646
0.816738
0.821443
0.825882
0.829841
0.833383
0.836476
0.83948
0.842128
0.84454
0.84683
0.84911
0.851255
0.853439
0.855563
0.857701
0.859762
0.861718
0.863591
0.865295
0.866929
0.868357
0.869758
0.870948
0.872164
0.873151
0.874239
0.87501
0.875989
0.876567
0.87744
0.877848
0.878646
0.878867
0.879602
0.879663
0.880357
0.880273
0.88095
0.880735
0.881406
0.881081
0.881755
0.881321
0.882022
0.881505
0.882213
0.881644
0.882366
0.881701
0.882446
0.881723
0.882508
0.881745
0.882595
0.881726
0.882628
0.881698
0.882653
0.881643
0.882711
0.881731
0.882952
0.881834
0.882793
0.882583
0.883327
0.881277
0.884839
0.880631
0.886398
0.879924
0.886237
0.903192
0.921886
0.939185
0.954795
0.967245
0.977174
0.981446
0.98549
0.99131
1.00283
1.00588
1.01369
1.01226
1.01844
1.01088
1.01505
1.00201
1.01071
0.993941
1.00715
0.987009
1.00914
0.984725
1.01712
0.985266
1.02424
0.982388
1.02445
0.986238
1.01073
0.960742
0.960563
1.01077
0.986276
1.02446
0.982414
1.02432
0.9853
1.01713
0.984515
1.00931
0.986964
1.00718
0.993924
1.01075
1.00193
1.01489
1.01101
1.01828
1.01241
1.01361
1.00656
1.00445
0.99436
0.987711
0.981891
0.978397
0.97162
0.968336
0.964402
0.964942
0.962653
0.963824
0.966654
0.971937
0.974898
0.979415
0.981572
0.98595
0.986979
0.991779
0.991538
0.995957
0.995776
0.9998
0.999397
1.00328
1.0031
1.00653
1.00637
1.00964
1.00955
1.01237
1.0124
1.01514
1.01532
1.01669
1.01629
1.01947
1.01974
1.02041
1.01989
1.02213
1.02282
1.02358
1.02336
1.02427
1.02374
1.0237
1.02393
1.02435
1.02378
1.02366
1.02324
1.02313
1.02275
1.02217
1.02131
1.02067
1.01974
1.01896
1.01806
1.01707
1.01598
1.01465
1.01329
1.01192
1.0104
1.00887
1.00729
1.00555
1.00344
1.00121
0.998989
0.99661
0.994122
0.991354
0.988562
0.985693
0.982716
0.979495
0.976154
0.972771
0.969355
0.963654
0.957789
0.95555
0.953586
0.949075
0.944256
0.939467
0.934931
0.930523
0.926442
0.921479
0.917271
0.913158
0.909876
0.905957
0.903708
0.901315
0.900609
0.899155
0.900574
0.90091
0.904191
0.908455
0.910955
0.91797
0.920646
0.926888
0.931632
0.937776
0.943724
0.949403
0.954085
0.960733
0.965977
0.972453
0.976422
0.982385
0.986531
0.991899
0.997109
1.00278
1.0072
1.01268
1.01652
1.02146
1.02629
1.032
1.03686
1.04233
1.04728
1.0524
1.05805
1.06276
1.06878
1.07466
1.08056
1.08578
1.09147
1.09704
1.10381
1.10992
1.11521
1.12159
1.1294
1.13793
1.14604
1.15368
1.16215
1.17089
1.18079
1.19103
1.2003
1.21044
1.22088
1.23421
1.24091
1.25308
1.24452
1.23593
1.19928
1.16507
1.07601
0.995104
0.903308
0.809158
0.75383
0.778177
0.731676
0.683211
0.639953
0.608034
0.58897
0.578735
0.566757
0.559417
0.555297
0.550025
0.552993
0.553778
0.552737
0.553875
0.553325
0.554626
0.555835
0.55724
0.558196
0.559422
0.56042
0.560251
0.559732
0.558889
0.557143
0.557173
0.556524
0.556497
0.555234
0.554837
0.549673
0.549784
0.548666
0.548783
0.548032
0.549063
0.547495
0.548519
0.547566
0.548693
0.545537
0.541693
0.539493
0.536576
0.532113
0.532231
0.529271
0.528541
0.527559
0.526482
0.524453
0.522786
0.520854
0.518704
0.516674
0.512275
0.513408
0.506629
0.513817
0.526377
0.579215
0.662426
0.695231
0.71144
0.727883
0.739605
0.751943
0.761196
0.770831
0.778439
0.78623
0.792715
0.799199
0.80483
0.810337
0.815312
0.819949
0.824331
0.828293
0.831907
0.835036
0.838045
0.840751
0.843242
0.845542
0.847785
0.849865
0.851934
0.853889
0.85579
0.85759
0.859302
0.860869
0.862292
0.86368
0.864867
0.866062
0.867038
0.868088
0.868889
0.869841
0.870463
0.871337
0.871799
0.872596
0.872905
0.873641
0.873781
0.874473
0.874461
0.875131
0.874986
0.875657
0.875396
0.876081
0.875724
0.876438
0.875998
0.876757
0.876253
0.877051
0.876498
0.877348
0.87673
0.877634
0.876976
0.877935
0.877245
0.878274
0.877522
0.878651
0.877851
0.879076
0.878198
0.879406
0.878598
0.879839
0.878844
0.880047
0.879449
0.880361
0.879535
0.880683
0.878819
0.881387
0.874799
0.888681
0.885927
0.897121
0.905249
0.922165
0.937007
0.952764
0.966063
0.977208
0.985746
1.00061
1.00463
1.01359
1.01229
1.01848
1.01071
1.01525
1.00187
1.01059
0.993993
1.00711
0.987014
1.00919
0.984695
1.01718
0.985364
1.02462
0.982572
1.02499
0.986679
1.01085
0.961037
0.961027
1.01089
0.986685
1.02511
0.982641
1.02448
0.985484
1.01705
0.984557
1.00932
0.987013
1.00716
0.994007
1.01055
1.00208
1.01476
1.01101
1.01819
1.01229
1.01354
1.00617
1.00508
0.994824
0.988046
0.980227
0.977094
0.973231
0.975401
0.971431
0.972951
0.973045
0.975795
0.9669
0.981852
0.974473
0.985086
0.98144
0.989281
0.987486
0.993649
0.992414
0.997285
0.996647
1.0009
1.00034
1.00422
1.00403
1.00736
1.00725
1.01036
1.0103
1.01298
1.01308
1.01569
1.01591
1.0173
1.01711
1.0197
1.02015
1.02115
1.02092
1.02274
1.02312
1.02395
1.02397
1.02478
1.02452
1.02451
1.02451
1.02497
1.02446
1.02444
1.02404
1.02396
1.02357
1.02308
1.02227
1.02169
1.02084
1.02009
1.01927
1.01834
1.01733
1.01609
1.01483
1.01355
1.01214
1.01072
1.00926
1.00763
1.00567
1.00358
1.00152
0.999306
0.997002
0.99443
0.991845
0.989189
0.986429
0.983437
0.980335
0.977202
0.974025
0.96864
0.963123
0.961107
0.959401
0.955203
0.950737
0.946299
0.942099
0.938039
0.93426
0.929641
0.925727
0.921896
0.918801
0.915076
0.913031
0.910741
0.910057
0.908637
0.910152
0.91035
0.913475
0.917698
0.919907
0.926848
0.929413
0.935179
0.939843
0.945649
0.951198
0.956852
0.961412
0.967787
0.972825
0.97907
0.982847
0.988493
0.992501
0.997666
1.00243
1.00799
1.01203
1.01716
1.02063
1.0255
1.02985
1.03566
1.0402
1.04533
1.05015
1.05498
1.06012
1.0646
1.07027
1.07569
1.08193
1.08741
1.09295
1.09773
1.10437
1.11158
1.11818
1.12495
1.13218
1.13899
1.14705
1.1552
1.16479
1.17453
1.1841
1.19306
1.2032
1.21531
1.22508
1.23873
1.24654
1.25996
1.25191
1.25192
1.20312
1.1616
1.08543
1.00231
0.902306
0.824483
0.775727
0.780772
0.72761
0.698108
0.653562
0.615678
0.595336
0.591155
0.57669
0.565206
0.562379
0.563772
0.562362
0.565006
0.565512
0.568416
0.569571
0.572314
0.574601
0.577152
0.578767
0.581116
0.582681
0.583266
0.583097
0.582998
0.580506
0.581098
0.579951
0.580828
0.579071
0.579072
0.572963
0.573243
0.571657
0.57192
0.570539
0.571912
0.569592
0.570686
0.569304
0.570562
0.567051
0.562782
0.559474
0.556967
0.552139
0.551944
0.54872
0.548156
0.546389
0.545538
0.542417
0.541309
0.539209
0.536682
0.533569
0.530704
0.530283
0.524687
0.528226
0.542823
0.592572
0.671414
0.70261
0.716032
0.731005
0.742293
0.754264
0.763306
0.772748
0.780228
0.787873
0.794214
0.800539
0.806018
0.811356
0.816177
0.820706
0.824962
0.828834
0.832422
0.835539
0.838517
0.841189
0.843642
0.845907
0.848089
0.850079
0.852026
0.85385
0.855598
0.857248
0.858725
0.860231
0.861523
0.862793
0.863864
0.86496
0.865837
0.866808
0.867526
0.868414
0.868969
0.869793
0.870199
0.870958
0.871218
0.871928
0.872029
0.872705
0.872661
0.873325
0.873154
0.873829
0.873549
0.874251
0.873884
0.874626
0.874186
0.874982
0.874489
0.875339
0.874805
0.875719
0.875131
0.876109
0.875488
0.876531
0.875892
0.877012
0.876324
0.87755
0.876815
0.878168
0.877387
0.878766
0.878146
0.879643
0.878501
0.880557
0.879386
0.881317
0.880958
0.882065
0.879525
0.882283
0.880441
0.884765
0.883534
0.891925
0.899686
0.912015
0.926822
0.944657
0.960729
0.973688
0.98457
0.999621
1.00477
1.01361
1.01217
1.01849
1.01089
1.01516
1.00175
1.01082
0.993947
1.0071
0.98714
1.00922
0.98477
1.01722
0.985211
1.02435
0.982387
1.02451
0.986375
1.01069
0.960801
0.960513
1.01069
0.986237
1.02443
0.982479
1.02434
0.985449
1.01698
0.984837
1.00927
0.987067
1.00709
0.994017
1.01092
1.0019
1.01482
1.01106
1.01801
1.01245
1.0135
1.00713
1.00558
0.997757
0.991788
0.985292
0.982796
0.976103
0.974345
0.971733
0.971676
0.97015
0.973792
0.973851
0.97762
0.979183
0.983132
0.984319
0.988859
0.988954
0.993928
0.993276
0.997732
0.997468
1.00137
1.00112
1.00471
1.00479
1.00791
1.00807
1.01097
1.01107
1.01366
1.01377
1.01629
1.01643
1.01799
1.01793
1.02023
1.0205
1.02179
1.02206
1.0236
1.02374
1.02444
1.02467
1.02549
1.02538
1.02553
1.02554
1.02585
1.02541
1.02543
1.02508
1.02505
1.02474
1.02424
1.0235
1.02298
1.02219
1.0215
1.02072
1.01985
1.01891
1.01776
1.01658
1.01538
1.01406
1.01273
1.01135
1.00982
1.00799
1.00602
1.0041
1.00202
0.999864
0.99745
0.995025
0.992533
0.989944
0.987136
0.984215
0.981248
0.978241
0.973158
0.967927
0.966044
0.964406
0.960499
0.95631
0.952117
0.948138
0.944283
0.940681
0.936252
0.932493
0.928756
0.925687
0.922128
0.920048
0.917832
0.917055
0.915717
0.916931
0.91716
0.91983
0.923895
0.926035
0.932358
0.934883
0.940646
0.945104
0.950876
0.956282
0.961731
0.965967
0.972307
0.976995
0.983022
0.986401
0.991939
0.995572
1.00031
1.00501
1.01005
1.01401
1.01888
1.0223
1.02666
1.03097
1.03593
1.04028
1.04508
1.04981
1.05457
1.05961
1.06417
1.07012
1.07527
1.08074
1.08661
1.09234
1.09743
1.10421
1.11096
1.11756
1.12449
1.13167
1.13953
1.14747
1.15561
1.16485
1.17404
1.18381
1.19377
1.2036
1.21411
1.22438
1.23358
1.24177
1.25218
1.24574
1.23483
1.20599
1.17248
1.11251
1.04058
0.958196
0.878142
0.821602
0.815434
0.761624
0.720233
0.680251
0.642226
0.620445
0.600278
0.589214
0.583016
0.576462
0.569704
0.570788
0.57217
0.57516
0.576422
0.578626
0.581109
0.583974
0.586227
0.589414
0.592415
0.595174
0.597005
0.59691
0.598148
0.596531
0.59759
0.596671
0.598759
0.596813
0.59746
0.59137
0.591669
0.589387
0.589811
0.588062
0.589487
0.586938
0.58812
0.586272
0.58812
0.584099
0.579668
0.576581
0.573297
0.568364
0.568388
0.564326
0.563718
0.561483
0.561064
0.557516
0.556176
0.552819
0.551996
0.547561
0.544638
0.543169
0.538972
0.541352
0.555945
0.605294
0.683192
0.712858
0.722719
0.73576
0.746228
0.75754
0.766226
0.775358
0.782608
0.79005
0.796235
0.8024
0.807694
0.812882
0.81756
0.821935
0.826098
0.82985
0.833351
0.836444
0.839376
0.842002
0.844411
0.846616
0.848742
0.850671
0.852526
0.854257
0.855912
0.857468
0.858934
0.860261
0.861457
0.86264
0.863632
0.86466
0.865472
0.866388
0.867052
0.867897
0.868409
0.869198
0.869569
0.870303
0.870535
0.871227
0.871307
0.871971
0.87191
0.87257
0.872386
0.873062
0.872772
0.873479
0.873106
0.87386
0.87342
0.874233
0.873745
0.874616
0.874088
0.875027
0.874448
0.875454
0.874849
0.875928
0.875305
0.876457
0.875773
0.876996
0.876268
0.877591
0.876762
0.878157
0.877408
0.87877
0.87791
0.879299
0.878215
0.879893
0.878896
0.881084
0.878522
0.881498
0.878062
0.884212
0.881259
0.887513
0.889436
0.899519
0.91011
0.925763
0.943423
0.961354
0.976037
0.996219
1.00348
1.01346
1.0121
1.01866
1.01068
1.01542
1.0018
1.01055
0.994046
1.00704
0.98716
1.00928
0.984762
1.01732
0.985318
1.02486
0.98263
1.02494
0.986805
1.01086
0.961024
0.961019
1.01094
0.986602
1.02503
0.982657
1.02436
0.985683
1.01694
0.984655
1.00925
0.987044
1.00702
0.994169
1.01063
1.00214
1.01472
1.01118
1.0179
1.01247
1.01336
1.00676
1.00605
0.997655
0.992538
0.983953
0.981888
0.978404
0.97956
0.976331
0.978627
0.976989
0.980411
0.9765
0.984386
0.980172
0.988124
0.985092
0.992054
0.990007
0.996001
0.994416
0.999504
0.998541
1.0029
1.00234
1.00606
1.00603
1.00914
1.00929
1.0121
1.01221
1.01475
1.01485
1.01731
1.01746
1.01907
1.01919
1.02098
1.02142
1.02316
1.02359
1.02473
1.0246
1.0255
1.02582
1.0266
1.02671
1.02691
1.02675
1.02703
1.02673
1.02688
1.02651
1.02647
1.02616
1.02573
1.02507
1.02459
1.02388
1.02321
1.0225
1.02168
1.02082
1.01974
1.01865
1.01753
1.0163
1.01505
1.01376
1.01232
1.01059
1.00875
1.00694
1.00499
1.00297
1.0007
0.998426
0.996078
0.993627
0.990966
0.988198
0.985382
0.982495
0.9776
0.972615
0.970893
0.969342
0.965568
0.961557
0.957507
0.953654
0.949908
0.946353
0.942021
0.938305
0.934586
0.931482
0.927847
0.925769
0.923377
0.922517
0.920994
0.922116
0.922022
0.924734
0.928544
0.93041
0.936826
0.939103
0.944518
0.948664
0.954226
0.959106
0.964513
0.968709
0.974618
0.979198
0.984871
0.98812
0.99332
0.9968
1.00147
1.00581
1.01105
1.0145
1.01925
1.02237
1.02699
1.03104
1.03641
1.0407
1.04578
1.05036
1.0546
1.05981
1.06468
1.07017
1.07532
1.08177
1.08702
1.09281
1.09821
1.10461
1.11101
1.11763
1.12474
1.13243
1.13951
1.14745
1.15536
1.16468
1.17356
1.18397
1.19298
1.20361
1.21452
1.22424
1.23534
1.24041
1.25043
1.24283
1.23526
1.20087
1.16977
1.10955
1.04126
0.956179
0.884784
0.823674
0.815886
0.769355
0.730135
0.67954
0.649729
0.631145
0.609853
0.589608
0.582109
0.57869
0.576127
0.571316
0.572534
0.574225
0.577118
0.57816
0.580565
0.583196
0.586077
0.588924
0.591779
0.594431
0.597019
0.597995
0.59915
0.599354
0.600538
0.60164
0.603343
0.603207
0.605255
0.599972
0.601753
0.600124
0.601721
0.600038
0.602704
0.600107
0.602036
0.600104
0.602463
0.598839
0.594657
0.590337
0.587841
0.582599
0.582747
0.57805
0.577933
0.574841
0.575281
0.570934
0.570242
0.566463
0.564616
0.559333
0.558589
0.555687
0.551706
0.552187
0.567641
0.616771
0.695265
0.72509
0.73234
0.742759
0.75193
0.76233
0.770374
0.778995
0.785905
0.793035
0.798942
0.80485
0.80996
0.814902
0.819361
0.823608
0.82756
0.831175
0.834591
0.837588
0.84047
0.84303
0.845351
0.847513
0.849576
0.851425
0.853201
0.854843
0.856399
0.857871
0.859168
0.860491
0.861616
0.862735
0.863665
0.864636
0.865396
0.866266
0.866885
0.867693
0.86817
0.868929
0.869272
0.869983
0.870193
0.870868
0.870933
0.871586
0.871514
0.872167
0.871975
0.872648
0.872354
0.873063
0.872689
0.873448
0.873008
0.873829
0.873344
0.874228
0.873705
0.874661
0.874091
0.875117
0.874522
0.875623
0.875013
0.876193
0.875532
0.876797
0.876112
0.877489
0.876707
0.878216
0.877487
0.879089
0.878408
0.880012
0.878624
0.880616
0.880002
0.881467
0.880078
0.881691
0.880755
0.883458
0.883564
0.887821
0.891242
0.898974
0.908598
0.922858
0.939219
0.95624
0.972339
0.992671
1.00319
1.01341
1.01185
1.01882
1.01066
1.01541
1.00173
1.01068
0.993972
1.00713
0.987166
1.00934
0.984765
1.01735
0.985224
1.02456
0.982444
1.02451
0.98648
1.01068
0.960795
0.960441
1.0106
0.98627
1.0246
0.982519
1.02419
0.985509
1.01684
0.984876
1.00919
0.987012
1.00699
0.994079
1.01086
1.00186
1.01483
1.01099
1.01797
1.01245
1.01328
1.00757
1.00649
1.0002
0.995951
0.988821
0.986598
0.980724
0.979451
0.977322
0.97795
0.97714
0.980097
0.979963
0.98315
0.983909
0.987512
0.988079
0.992165
0.992266
0.996342
0.996353
0.999907
1.0002
1.00362
1.00366
1.00704
1.00719
1.01029
1.01038
1.01327
1.01325
1.01593
1.01595
1.0185
1.01846
1.02031
1.02043
1.02169
1.02219
1.02446
1.02531
1.02607
1.02555
1.0265
1.02703
1.02781
1.02798
1.02852
1.02824
1.02835
1.02821
1.02842
1.02807
1.02814
1.02782
1.02745
1.02685
1.02644
1.02579
1.02517
1.02451
1.02375
1.02296
1.02196
1.02095
1.0199
1.01876
1.01759
1.01638
1.01502
1.01342
1.01168
1.00999
1.00816
1.00627
1.00412
1.00197
0.999743
0.997416
0.994887
0.992237
0.989525
0.98674
0.982061
0.977276
0.975596
0.973994
0.970379
0.966488
0.962525
0.95871
0.954976
0.951401
0.947042
0.943279
0.939451
0.936167
0.932531
0.930241
0.927804
0.926658
0.925106
0.925947
0.925873
0.927944
0.931383
0.933068
0.938871
0.940748
0.946259
0.950219
0.955566
0.960364
0.965616
0.969441
0.97539
0.979494
0.985123
0.988244
0.993426
0.996656
1.00118
1.00559
1.01058
1.0146
1.01943
1.023
1.02727
1.03156
1.03648
1.04085
1.04559
1.05043
1.0551
1.06024
1.06481
1.07086
1.07602
1.0812
1.08717
1.09317
1.09836
1.10523
1.11161
1.11831
1.12452
1.13215
1.13985
1.14845
1.15545
1.16503
1.1732
1.18374
1.19183
1.20229
1.21125
1.22118
1.23122
1.23615
1.24532
1.23889
1.23332
1.20368
1.17773
1.13175
1.06966
0.998687
0.926311
0.867211
0.84865
0.801192
0.753187
0.704836
0.680124
0.656046
0.619936
0.605266
0.602056
0.593887
0.582326
0.582125
0.582369
0.583755
0.585149
0.586573
0.587984
0.590247
0.593342
0.595206
0.598322
0.601308
0.603007
0.604569
0.604991
0.605631
0.606089
0.606784
0.608705
0.609879
0.610746
0.607395
0.607142
0.607227
0.607851
0.608778
0.609635
0.609195
0.612144
0.610274
0.613544
0.61054
0.607301
0.603624
0.600368
0.595091
0.595686
0.590643
0.590984
0.587275
0.588017
0.582573
0.582992
0.578005
0.578417
0.571105
0.570571
0.566878
0.564331
0.56286
0.578771
0.627792
0.708643
0.740072
0.744328
0.75207
0.759663
0.76868
0.775908
0.783796
0.790151
0.796815
0.802407
0.808006
0.812769
0.817486
0.82172
0.825664
0.829484
0.832886
0.836124
0.839071
0.841837
0.844305
0.846569
0.848628
0.850616
0.852409
0.854088
0.855645
0.857129
0.858516
0.85981
0.860986
0.862034
0.863077
0.863943
0.864856
0.865563
0.866387
0.866963
0.867733
0.868175
0.868904
0.86922
0.869907
0.870096
0.870755
0.870802
0.871445
0.871359
0.872007
0.871804
0.872475
0.872171
0.87288
0.872497
0.87326
0.872814
0.873641
0.87315
0.874041
0.873512
0.874476
0.873902
0.874939
0.874334
0.87544
0.874816
0.875997
0.87532
0.876589
0.875868
0.877216
0.876414
0.877792
0.8769
0.878397
0.87758
0.879097
0.877894
0.879745
0.878631
0.880882
0.878776
0.881657
0.879213
0.882773
0.881855
0.88601
0.886527
0.89293
0.899433
0.911186
0.926195
0.944873
0.962715
0.986393
1.00099
1.01322
1.01186
1.01891
1.01071
1.01526
1.00173
1.01056
0.993974
1.00698
0.987202
1.00924
0.984777
1.01727
0.985303
1.0247
0.982629
1.02488
0.986854
1.01085
0.961
0.961043
1.01082
0.9866
1.02487
0.982858
1.02408
0.985649
1.01679
0.984964
1.00914
0.987083
1.00689
0.994191
1.01064
1.00211
1.01474
1.0111
1.01797
1.01233
1.01313
1.00729
1.0066
0.999837
0.997078
0.988653
0.986691
0.983723
0.984535
0.98216
0.984126
0.982337
0.985717
0.983182
0.988763
0.985875
0.992146
0.989595
0.995648
0.993665
0.999086
0.997693
1.00228
1.00161
1.00556
1.00522
1.00876
1.00875
1.01187
1.01197
1.01477
1.01486
1.01743
1.01753
1.01994
1.01998
1.02166
1.02196
1.02308
1.02362
1.02617
1.02701
1.02754
1.027
1.02813
1.0286
1.0294
1.0296
1.03019
1.02993
1.03
1.03003
1.03036
1.02996
1.02994
1.02969
1.02938
1.02888
1.0285
1.02792
1.02734
1.02673
1.02604
1.02531
1.02439
1.02346
1.02249
1.02143
1.02034
1.01921
1.01793
1.01642
1.01478
1.0132
1.01147
1.00969
1.00765
1.00561
1.00347
1.00122
0.998779
0.996214
0.993576
0.990831
0.986262
0.981644
0.979967
0.978349
0.974686
0.970834
0.96684
0.962968
0.959156
0.955428
0.950996
0.947101
0.943151
0.939741
0.935854
0.933504
0.930697
0.929452
0.927506
0.928057
0.927543
0.9297
0.932813
0.934348
0.940207
0.942215
0.947347
0.951095
0.956385
0.96093
0.966048
0.970098
0.975672
0.979978
0.985266
0.988592
0.993711
0.99731
1.00184
1.0062
1.01133
1.01494
1.01952
1.02297
1.02722
1.03166
1.0369
1.04153
1.04635
1.0513
1.05544
1.0608
1.06523
1.07116
1.076
1.0829
1.08747
1.094
1.09901
1.10559
1.11167
1.11928
1.12483
1.13339
1.13977
1.14878
1.15489
1.1658
1.17292
1.18374
1.19175
1.20205
1.2117
1.21935
1.22958
1.23382
1.24399
1.2336
1.23014
1.19844
1.17464
1.12322
1.06858
0.995583
0.928513
0.870371
0.846537
0.798116
0.758066
0.716406
0.689555
0.655646
0.624544
0.617929
0.603441
0.594249
0.585375
0.583133
0.583708
0.584545
0.584773
0.586343
0.587721
0.590157
0.591873
0.594916
0.59766
0.600558
0.602304
0.603632
0.603702
0.604427
0.604588
0.606342
0.607734
0.608969
0.609725
0.607068
0.606025
0.606876
0.607479
0.608526
0.610007
0.61128
0.612301
0.613141
0.614653
0.613506
0.612008
0.60848
0.606929
0.601906
0.603477
0.598975
0.600255
0.596415
0.59853
0.593502
0.593669
0.5886
0.588332
0.581654
0.581819
0.577368
0.574377
0.572398
0.588695
0.637385
0.721848
0.756585
0.759049
0.763964
0.769604
0.777071
0.783053
0.789932
0.795592
0.801655
0.806712
0.811857
0.816331
0.820635
0.824515
0.828285
0.831736
0.83493
0.838027
0.840767
0.843451
0.84581
0.847921
0.849926
0.851827
0.853508
0.855112
0.856577
0.857954
0.859265
0.860409
0.861567
0.862547
0.863531
0.864338
0.865197
0.865855
0.866634
0.867168
0.867901
0.86831
0.869008
0.869297
0.869961
0.870129
0.870769
0.870803
0.871432
0.871336
0.871974
0.871764
0.872427
0.872119
0.872824
0.87244
0.873199
0.872753
0.873578
0.873087
0.873979
0.873453
0.874419
0.873849
0.87489
0.87429
0.875406
0.874792
0.875987
0.875332
0.876622
0.875927
0.877334
0.876598
0.878052
0.877217
0.878834
0.878064
0.879734
0.878806
0.88043
0.879404
0.881186
0.880402
0.881978
0.881349
0.883194
0.883583
0.886324
0.88875
0.894053
0.900376
0.910656
0.923881
0.940443
0.958409
0.980923
0.998954
1.01278
1.01163
1.0191
1.01065
1.01534
1.0017
1.01085
0.993941
1.00701
0.987128
1.00918
0.98478
1.01728
0.985337
1.02473
0.982554
1.02456
0.986638
1.01065
0.960875
0.960465
1.01054
0.986409
1.02446
0.982677
1.02402
0.98555
1.01694
0.984944
1.00919
0.987029
1.00682
0.994136
1.01079
1.00213
1.01457
1.01097
1.01804
1.01222
1.01305
1.00792
1.00691
1.00156
0.999699
0.993328
0.990774
0.986302
0.985259
0.983547
0.984538
0.983835
0.986293
0.98601
0.988921
0.989148
0.992431
0.992672
0.996213
0.99639
0.999848
1.00004
1.00337
1.00345
1.00704
1.0068
1.01027
1.01028
1.01335
1.01341
1.01619
1.01624
1.01893
1.01892
1.02145
1.02134
1.0234
1.02351
1.02433
1.02492
1.02776
1.02868
1.02912
1.02847
1.02964
1.0303
1.03101
1.03111
1.03209
1.03172
1.03172
1.03189
1.03227
1.0319
1.03201
1.03171
1.03148
1.03105
1.03076
1.03023
1.02968
1.02914
1.02848
1.02784
1.02698
1.02612
1.02521
1.02423
1.0232
1.02213
1.02093
1.01951
1.01797
1.01648
1.01483
1.01313
1.01117
1.00919
1.00712
1.00493
1.00254
1.00002
0.99741
0.994667
0.990155
0.985614
0.983888
0.982049
0.978386
0.9745
0.970424
0.966423
0.962451
0.958515
0.953867
0.949659
0.945393
0.941705
0.937501
0.934986
0.931818
0.930507
0.927902
0.929323
0.928045
0.930664
0.932438
0.935338
0.939662
0.942192
0.946986
0.951441
0.956052
0.961634
0.965616
0.970738
0.975491
0.980938
0.985165
0.989643
0.993142
0.997908
1.00104
1.0069
1.01037
1.01593
1.01921
1.02456
1.02705
1.03289
1.03621
1.04218
1.0455
1.05198
1.05492
1.06183
1.06503
1.07212
1.07579
1.08288
1.0869
1.09427
1.09875
1.10664
1.11123
1.12
1.12476
1.13312
1.13938
1.14897
1.15517
1.16519
1.17263
1.18239
1.19116
1.20022
1.20925
1.21785
1.22651
1.22961
1.23788
1.23019
1.22678
1.20084
1.17836
1.14174
1.08895
1.02659
0.963315
0.905469
0.874777
0.825745
0.786454
0.745912
0.706717
0.677115
0.646572
0.632681
0.617148
0.604789
0.597408
0.592277
0.589733
0.590399
0.591639
0.592461
0.593615
0.595257
0.597252
0.599954
0.601981
0.605223
0.606829
0.60811
0.607962
0.608806
0.608758
0.610429
0.611565
0.612363
0.613601
0.610512
0.610181
0.6101
0.610751
0.611818
0.613165
0.614109
0.61508
0.615897
0.617665
0.617835
0.614584
0.613091
0.609334
0.606866
0.606747
0.604114
0.604923
0.603316
0.603831
0.600185
0.602099
0.597042
0.596983
0.590119
0.590409
0.587556
0.583414
0.581955
0.597946
0.645436
0.73494
0.774285
0.77497
0.777755
0.781726
0.787295
0.791992
0.797615
0.802288
0.807523
0.812029
0.816646
0.820541
0.824504
0.828041
0.831305
0.834576
0.837433
0.840238
0.842903
0.845375
0.847576
0.849616
0.851458
0.85325
0.854867
0.856345
0.857711
0.859019
0.860231
0.861346
0.862377
0.863276
0.864178
0.864919
0.865717
0.86632
0.867047
0.867537
0.868228
0.868601
0.869265
0.869525
0.870162
0.870305
0.870927
0.87094
0.871557
0.871445
0.872075
0.871851
0.87251
0.872189
0.872893
0.872495
0.873257
0.872798
0.873628
0.873122
0.874021
0.873477
0.874451
0.873862
0.874912
0.874288
0.875413
0.874764
0.875962
0.875264
0.876541
0.875779
0.877166
0.876345
0.877784
0.876874
0.878393
0.877405
0.879103
0.878034
0.879888
0.87844
0.880753
0.879265
0.881937
0.880155
0.883333
0.882493
0.885941
0.886292
0.89092
0.895083
0.903687
0.915164
0.931771
0.949699
0.973776
0.994432
1.01218
1.01146
1.01928
1.0105
1.01553
1.00162
1.01066
0.994061
1.00697
0.987184
1.00922
0.984826
1.01729
0.98544
1.02466
0.982676
1.02497
0.986852
1.01091
0.960992
0.961065
1.01079
0.986671
1.02493
0.98272
1.02425
0.985595
1.01697
0.984945
1.00918
0.987128
1.00683
0.994159
1.01069
1.0022
1.01481
1.01093
1.01784
1.01223
1.01295
1.00772
1.00694
1.00182
0.999915
0.993908
0.991564
0.989146
0.989983
0.987923
0.989991
0.988169
0.991507
0.989479
0.993984
0.991834
0.996867
0.994842
0.999911
0.998256
1.00294
1.00181
1.00595
1.0053
1.00913
1.00867
1.01217
1.01213
1.01509
1.01534
1.01788
1.01819
1.02068
1.02084
1.02319
1.02325
1.02498
1.02531
1.02637
1.02686
1.0295
1.03037
1.03084
1.03038
1.03164
1.03226
1.03297
1.03295
1.03394
1.0337
1.03388
1.03407
1.0345
1.03409
1.0341
1.0339
1.03376
1.0334
1.03312
1.03266
1.03215
1.03165
1.03106
1.03045
1.02968
1.02889
1.02804
1.02713
1.02616
1.02515
1.024
1.02265
1.02118
1.01974
1.01815
1.01651
1.01459
1.01265
1.01059
1.00839
1.00599
1.00345
1.00081
0.997975
0.993419
0.988925
0.987042
0.985022
0.981147
0.977097
0.972758
0.968447
0.964164
0.959938
0.954953
0.950735
0.946385
0.942553
0.938375
0.935674
0.932637
0.931106
0.928788
0.930039
0.928507
0.931147
0.933536
0.935984
0.940522
0.943802
0.948008
0.952554
0.957013
0.962509
0.96645
0.97148
0.975762
0.981121
0.985373
0.989899
0.993724
0.998708
1.00196
1.00745
1.01128
1.01629
1.01952
1.0244
1.02764
1.03308
1.03736
1.04285
1.04658
1.05229
1.05585
1.06161
1.06596
1.07236
1.07673
1.08388
1.08846
1.09479
1.10013
1.10718
1.11246
1.11991
1.12629
1.13414
1.14063
1.14858
1.15566
1.16431
1.17281
1.18204
1.19039
1.19867
1.20699
1.21418
1.22413
1.22685
1.23356
1.22407
1.22042
1.19509
1.17342
1.13244
1.08407
1.02051
0.963253
0.904691
0.873902
0.82479
0.789107
0.744116
0.715191
0.680538
0.653052
0.63614
0.617873
0.607019
0.601109
0.593089
0.593026
0.59077
0.591795
0.592119
0.593083
0.5942
0.596386
0.598716
0.601152
0.603567
0.605358
0.606224
0.606804
0.606657
0.607757
0.608917
0.610439
0.611209
0.612407
0.608696
0.609007
0.608699
0.60962
0.610411
0.611971
0.612825
0.613892
0.614691
0.616549
0.616627
0.613245
0.61225
0.608434
0.605648
0.605519
0.60423
0.604197
0.60362
0.603917
0.602283
0.601212
0.599904
0.59885
0.595936
0.593131
0.593029
0.586218
0.588327
0.604101
0.651052
0.746343
0.791751
0.79239
0.793319
0.795715
0.799698
0.802768
0.806914
0.810494
0.814773
0.818411
0.822308
0.825759
0.829084
0.832093
0.835119
0.837815
0.840372
0.842962
0.845279
0.847629
0.849663
0.851461
0.853235
0.854904
0.856358
0.857755
0.85901
0.860185
0.861314
0.862292
0.863269
0.864091
0.864928
0.8656
0.866336
0.866883
0.86756
0.868
0.868649
0.868982
0.86961
0.869839
0.870446
0.870566
0.871164
0.871161
0.871758
0.871634
0.872248
0.872017
0.872664
0.872338
0.873031
0.872632
0.873385
0.872925
0.873747
0.873241
0.874134
0.873592
0.874561
0.873977
0.875024
0.874407
0.875532
0.874897
0.876102
0.875433
0.876722
0.876011
0.877419
0.876662
0.878164
0.877352
0.8789
0.878028
0.879698
0.878898
0.88052
0.879607
0.881255
0.880645
0.882255
0.881919
0.883561
0.883982
0.886117
0.887947
0.891874
0.896433
0.904081
0.914265
0.928661
0.945902
0.968095
0.990245
1.01106
1.01114
1.01942
1.01056
1.01539
1.00164
1.01078
0.994065
1.00697
0.987159
1.00926
0.984698
1.01723
0.985374
1.02454
0.982439
1.02467
0.986767
1.01066
0.960932
0.960463
1.01044
0.986567
1.02437
0.982795
1.02392
0.98565
1.01714
0.984774
1.00935
0.986982
1.00702
0.994043
1.01073
1.00221
1.01464
1.01116
1.01763
1.01236
1.01291
1.0083
1.00703
1.00292
1.00153
0.997599
0.995573
0.991541
0.991811
0.989723
0.991428
0.990269
0.992837
0.992142
0.99503
0.994673
0.997859
0.997665
1.00105
1.00097
1.00429
1.00426
1.00762
1.00739
1.01097
1.01059
1.0139
1.0139
1.01685
1.01696
1.01967
1.01974
1.02249
1.02232
1.02481
1.02484
1.02684
1.02724
1.02847
1.02867
1.03099
1.03162
1.03259
1.03247
1.03357
1.03427
1.03485
1.03482
1.0358
1.03572
1.03601
1.03615
1.03662
1.0363
1.03636
1.03619
1.03608
1.0358
1.03561
1.03518
1.03471
1.03425
1.0337
1.03316
1.03243
1.03168
1.03087
1.03
1.02907
1.02809
1.02699
1.02568
1.02425
1.02285
1.02128
1.01963
1.0177
1.01573
1.01363
1.01139
1.00894
1.00633