/*--------------------------------*- C++ -*----------------------------------*\
| =========                 |                                                 |
| \\      /  F ield         | OpenFOAM: The Open Source CFD Toolbox           |
|  \\    /   O peration     | Version:  v2006                                 |
|   \\  /    A nd           | Website:  www.openfoam.com                      |
|    \\/     M anipulation  |                                                 |
\*---------------------------------------------------------------------------*/
FoamFile
{
    version     2.0;
    format      ascii;
    class       volScalarField;
    location    "220";
    object      T;
}
// * * * * * * * * * * * * * * * * * * * * * * * * * * * * * * * * * * * * * //

dimensions      [0 0 0 1 0 0 0];


internalField   nonuniform List<scalar> 
93840
(
0.98497
1.00549
0.998661
1.00788
0.99819
1.01207
1.00079
1.01544
1.00453
1.01352
1.00751
1.01304
1.01024
1.01394
1.01266
1.01523
1.01531
1.01645
1.01569
1.01562
1.01498
1.01622
1.02035
1.02506
1.02579
1.02456
1.02224
1.01901
1.01571
1.02006
1.0215
1.03338
1.03098
1.02825
1.03521
1.03298
1.03744
1.03599
1.03937
1.03857
1.04097
1.04023
1.04237
1.04177
1.04353
1.04322
1.04486
1.04459
1.0459
1.04589
1.04704
1.047
1.04806
1.04835
1.04931
1.04893
1.04944
1.05012
1.05099
1.05078
1.051
1.05154
1.0524
1.05245
1.05277
1.05297
1.05315
1.05299
1.05348
1.05364
1.0538
1.05376
1.05398
1.054
1.05423
1.05412
1.05417
1.05408
1.0541
1.05399
1.05405
1.05392
1.05391
1.05369
1.05356
1.05337
1.05321
1.05298
1.05283
1.05257
1.05224
1.0518
1.05145
1.051
1.05057
1.04999
1.04946
1.04886
1.04828
1.04757
1.04686
1.04616
1.04553
1.04384
1.04186
1.04156
1.04162
1.04046
1.03903
1.03758
1.03612
1.03463
1.03318
1.03122
1.02935
1.02743
1.02569
1.02356
1.0218
1.01992
1.01847
1.01664
1.01569
1.0144
1.01399
1.01435
1.01353
1.01498
1.01446
1.0152
1.01583
1.01658
1.01763
1.01827
1.01871
1.01981
1.02055
1.02161
1.02182
1.0227
1.02292
1.0236
1.02434
1.02535
1.02575
1.02651
1.02666
1.02733
1.02794
1.02891
1.02956
1.03061
1.03143
1.03198
1.03311
1.03439
1.0356
1.03607
1.03747
1.03951
1.04093
1.04139
1.04269
1.04452
1.04676
1.04916
1.05104
1.05299
1.05547
1.05767
1.06068
1.0644
1.06834
1.07176
1.0749
1.07939
1.08374
1.08925
1.09292
1.09713
1.09759
1.08629
1.07952
1.04398
1.0165
0.96323
0.919817
0.882617
0.883149
0.911973
0.890254
0.866911
0.845785
0.8415
0.848378
0.846619
0.839735
0.843347
0.851367
0.85353
0.858405
0.864761
0.870918
0.875153
0.881011
0.886439
0.892166
0.896352
0.901541
0.904983
0.910171
0.913014
0.917226
0.919779
0.923614
0.925401
0.930173
0.931887
0.936469
0.937293
0.938319
0.939902
0.944189
0.945189
0.94942
0.950924
0.954561
0.954837
0.95888
0.960015
0.962814
0.95956
0.962315
0.960035
0.962151
0.96301
0.965162
0.965341
0.967599
0.967233
0.969187
0.968375
0.969316
0.969919
0.968456
0.969756
0.969401
0.969784
0.972645
0.988401
1.03183
1.0884
1.10199
1.10027
1.10047
1.09891
1.0986
1.09718
1.09666
1.09564
1.09528
1.09467
1.09451
1.09419
1.09418
1.09412
1.09426
1.09444
1.09496
1.09576
1.09642
1.09692
1.09772
1.09862
1.09932
1.09977
1.10012
1.10029
1.10031
1.10014
1.09991
1.09959
1.0993
1.09898
1.09872
1.09847
1.09827
1.09805
1.09792
1.09777
1.0977
1.09762
1.09762
1.0976
1.09767
1.09769
1.09778
1.09783
1.09797
1.09802
1.09819
1.09826
1.09846
1.09854
1.09878
1.09889
1.09918
1.09931
1.09963
1.09979
1.10016
1.10033
1.10076
1.10095
1.1014
1.10163
1.10211
1.10237
1.10286
1.10315
1.10365
1.10397
1.10448
1.10479
1.10535
1.10569
1.10627
1.10657
1.10692
1.10762
1.10775
1.10735
1.10818
1.10797
1.10661
1.10819
1.09651
1.08294
1.07011
1.05382
1.04094
1.03195
1.02721
1.02551
1.02545
1.02149
1.01672
1.015
1.0157
1.01575
1.0164
1.01542
1.01515
1.01264
1.01389
1.01025
1.01306
1.0075
1.01348
1.00452
1.0154
1.00079
1.01209
0.998153
1.00775
0.998584
1.00551
0.98487
0.984862
1.00551
0.998584
1.00774
0.998102
1.01199
1.00074
1.01547
1.00452
1.01351
1.00756
1.01307
1.01024
1.01391
1.01274
1.01512
1.01538
1.01638
1.01569
1.01548
1.01448
1.01503
1.01821
1.0231
1.02488
1.02628
1.02669
1.02722
1.02881
1.02751
1.02682
1.02688
1.02739
1.03013
1.03137
1.03304
1.03448
1.03558
1.03696
1.03791
1.03899
1.03963
1.04083
1.04126
1.04238
1.04279
1.04394
1.04425
1.04532
1.04567
1.04667
1.04695
1.04791
1.04827
1.04918
1.04908
1.04967
1.05045
1.05123
1.05109
1.05145
1.05204
1.05285
1.05293
1.05331
1.05352
1.05373
1.05361
1.0541
1.05424
1.05439
1.05434
1.05454
1.05454
1.05475
1.0546
1.05462
1.05447
1.05445
1.05428
1.05428
1.05407
1.05398
1.05366
1.05345
1.05315
1.05287
1.05253
1.05225
1.05183
1.05134
1.05072
1.05019
1.04953
1.04889
1.04807
1.04729
1.04642
1.04555
1.04454
1.04351
1.04246
1.04142
1.03925
1.03693
1.03636
1.03601
1.03432
1.0324
1.03041
1.02842
1.02638
1.02436
1.0218
1.01938
1.0169
1.01467
1.01201
1.00985
1.00756
1.00586
1.00375
1.00273
1.00134
1.00104
1.0015
1.00085
1.00255
1.00211
1.00331
1.00407
1.00519
1.00643
1.00735
1.00803
1.00946
1.01039
1.0117
1.01212
1.01325
1.0137
1.01465
1.0157
1.01691
1.01759
1.01864
1.01911
1.0201
1.02106
1.02232
1.02332
1.02481
1.02594
1.02698
1.02868
1.0305
1.03212
1.03327
1.03552
1.03821
1.04002
1.04128
1.04345
1.04614
1.04942
1.05284
1.05509
1.05735
1.06007
1.06348
1.06796
1.072
1.07462
1.07768
1.08141
1.08542
1.08947
1.09336
1.09622
1.09883
1.09822
1.09327
1.07931
1.06226
1.04633
0.999101
0.960109
0.924785
0.907741
0.903408
0.875196
0.860604
0.842283
0.824708
0.817851
0.809635
0.803404
0.804224
0.806731
0.805237
0.809792
0.813666
0.81936
0.82229
0.827526
0.832264
0.838756
0.843332
0.849508
0.853228
0.85918
0.862206
0.867342
0.870081
0.875252
0.877139
0.882617
0.884687
0.890182
0.891407
0.893237
0.894635
0.899733
0.900852
0.905936
0.907559
0.91234
0.912767
0.917551
0.918797
0.922927
0.919767
0.923378
0.920565
0.923086
0.923938
0.92663
0.926832
0.929801
0.929574
0.93212
0.931286
0.932445
0.933374
0.932097
0.933154
0.932911
0.934421
0.934327
0.957661
1.00865
1.07169
1.09959
1.09947
1.10019
1.09895
1.0989
1.09772
1.09735
1.0965
1.09629
1.09589
1.09592
1.09581
1.09598
1.09607
1.0963
1.09655
1.09705
1.09774
1.09834
1.09884
1.09957
1.10036
1.10103
1.10153
1.10196
1.10228
1.10251
1.10264
1.10274
1.10279
1.10283
1.10285
1.10289
1.10293
1.10299
1.10303
1.1031
1.10318
1.10328
1.10338
1.10351
1.10363
1.10378
1.10392
1.10409
1.10424
1.10443
1.10457
1.10477
1.10491
1.10512
1.10526
1.10548
1.10562
1.10585
1.106
1.10624
1.10639
1.10664
1.10679
1.10704
1.10719
1.10744
1.10759
1.10783
1.10798
1.10821
1.10836
1.10858
1.10873
1.10895
1.10907
1.10923
1.10939
1.10952
1.10956
1.10967
1.10984
1.10979
1.10986
1.10964
1.10915
1.10876
1.1079
1.10518
1.10121
1.09435
1.08369
1.07072
1.05675
1.04424
1.03471
1.02971
1.02431
1.01848
1.01566
1.0159
1.01579
1.0164
1.0154
1.01516
1.01269
1.0138
1.01024
1.01305
1.00746
1.01346
1.00443
1.01538
1.00078
1.01183
0.998175
1.00792
0.998703
1.00554
0.984976
0.985019
1.00551
0.998653
1.0079
0.998137
1.01194
1.00076
1.01547
1.00454
1.0135
1.00759
1.01313
1.01024
1.01398
1.01281
1.01512
1.01536
1.01635
1.0156
1.01535
1.01444
1.01437
1.01631
1.02108
1.02297
1.02373
1.02524
1.02493
1.02534
1.02597
1.02727
1.02836
1.02778
1.02965
1.03132
1.03158
1.03396
1.03399
1.03621
1.03634
1.0381
1.03827
1.03978
1.04009
1.04129
1.04174
1.04286
1.04329
1.04427
1.04476
1.04564
1.04606
1.0469
1.04739
1.04823
1.0483
1.04886
1.0495
1.05027
1.05038
1.05081
1.05128
1.05191
1.05206
1.05248
1.05269
1.05296
1.05286
1.05321
1.05336
1.05346
1.05345
1.05359
1.05357
1.0537
1.05354
1.05349
1.05331
1.05323
1.053
1.05293
1.05264
1.05247
1.05208
1.05177
1.05137
1.05099
1.05053
1.05012
1.04958
1.04894
1.04818
1.04748
1.04665
1.04581
1.04479
1.04379
1.0427
1.04159
1.04033
1.03905
1.03772
1.03639
1.03393
1.03134
1.03045
1.02974
1.0277
1.02543
1.02306
1.0207
1.01828
1.01592
1.01301
1.0103
1.00754
1.00509
1.0022
0.999926
0.99752
0.99581
0.993655
0.992831
0.991478
0.991404
0.992031
0.991662
0.993541
0.99344
0.994839
0.995828
0.997182
0.998587
0.999826
1.00081
1.00242
1.0036
1.00515
1.00587
1.00722
1.00801
1.0093
1.01056
1.01212
1.013
1.01433
1.01507
1.01645
1.01761
1.01928
1.02062
1.02244
1.0239
1.02519
1.0271
1.02914
1.03113
1.03274
1.03506
1.03717
1.03929
1.04155
1.0437
1.04551
1.04781
1.05052
1.05326
1.05627
1.05907
1.06184
1.0651
1.06838
1.07201
1.07617
1.07944
1.08413
1.08708
1.09281
1.09384
1.09749
1.09624
1.09115
1.08313
1.06705
1.04217
0.999826
0.965942
0.927453
0.906356
0.911532
0.888847
0.861489
0.845647
0.83931
0.82512
0.804556
0.804345
0.807547
0.806231
0.797285
0.802257
0.802087
0.806153
0.806096
0.808727
0.810241
0.814926
0.817138
0.822014
0.82396
0.828593
0.830097
0.834678
0.836209
0.841343
0.842718
0.847937
0.849269
0.85474
0.855775
0.857928
0.858794
0.864332
0.865169
0.87079
0.872067
0.877456
0.877879
0.883135
0.883868
0.889049
0.886262
0.890402
0.887711
0.89032
0.890851
0.894439
0.894731
0.898158
0.897495
0.900742
0.900097
0.902215
0.902118
0.902486
0.902338
0.904403
0.902439
0.907838
0.927278
0.98451
1.05535
1.08861
1.0931
1.09561
1.09498
1.09556
1.09472
1.09469
1.09404
1.09406
1.09386
1.09411
1.09424
1.09464
1.09494
1.09534
1.09575
1.09637
1.09709
1.0977
1.09825
1.09904
1.09986
1.10058
1.10116
1.10171
1.10218
1.10258
1.1029
1.10318
1.10342
1.10364
1.10384
1.10404
1.10422
1.1044
1.10457
1.10474
1.10492
1.1051
1.10529
1.10548
1.10567
1.10587
1.10607
1.10627
1.10647
1.10667
1.10686
1.10706
1.10723
1.10743
1.1076
1.10779
1.10795
1.10815
1.10829
1.10848
1.10862
1.1088
1.10893
1.1091
1.10921
1.10936
1.10946
1.10959
1.10968
1.10979
1.10986
1.10997
1.11002
1.11012
1.11015
1.11018
1.11027
1.11027
1.11012
1.1102
1.11017
1.11008
1.11032
1.10976
1.10905
1.1087
1.10821
1.1068
1.10413
1.10079
1.09494
1.08583
1.07388
1.06027
1.04682
1.03705
1.02836
1.02008
1.01604
1.01615
1.0159
1.01646
1.01538
1.01512
1.0128
1.01381
1.01024
1.01305
1.00748
1.01344
1.00445
1.01533
1.00077
1.01203
0.998127
1.00786
0.998596
1.00554
0.984927
0.984871
1.00554
0.998536
1.00779
0.998096
1.01187
1.00075
1.01547
1.00465
1.01344
1.00761
1.01316
1.01023
1.0139
1.01276
1.01514
1.01542
1.01631
1.01564
1.01527
1.01418
1.01398
1.01499
1.01927
1.02174
1.02276
1.02428
1.0247
1.02505
1.02538
1.02549
1.02651
1.02744
1.02869
1.02983
1.03108
1.03231
1.03347
1.03452
1.03567
1.0365
1.03739
1.0384
1.03906
1.04005
1.04064
1.04168
1.04218
1.04315
1.04366
1.04451
1.04499
1.04577
1.04631
1.04701
1.04722
1.04777
1.04837
1.04902
1.04927
1.04983
1.05024
1.05073
1.05084
1.0513
1.0515
1.05179
1.05175
1.05205
1.05212
1.05221
1.05218
1.05227
1.05225
1.05234
1.05214
1.05204
1.05183
1.05169
1.05142
1.05127
1.05093
1.05069
1.05023
1.04984
1.04936
1.04889
1.04835
1.04783
1.04719
1.04643
1.04556
1.04472
1.04376
1.04276
1.04159
1.04042
1.03915
1.03787
1.03643
1.03496
1.03344
1.03188
1.02922
1.02647
1.02535
1.02435
1.02207
1.01959
1.01699
1.01441
1.01179
1.00925
1.00618
1.00336
1.00049
0.997997
0.995074
0.992822
0.990474
0.988895
0.986855
0.986175
0.985057
0.985143
0.985885
0.985863
0.987761
0.987902
0.989606
0.990699
0.992357
0.99389
0.995403
0.996478
0.998413
0.999679
1.00154
1.00243
1.00411
1.00517
1.00672
1.00838
1.01014
1.0115
1.01326
1.01442
1.016
1.01753
1.01936
1.02105
1.02306
1.02459
1.02623
1.02834
1.03033
1.03221
1.03406
1.03657
1.03887
1.04055
1.04269
1.04506
1.04723
1.04963
1.05249
1.05495
1.05762
1.06016
1.06337
1.06694
1.07054
1.07334
1.07696
1.07981
1.08472
1.08751
1.09301
1.09457
1.09645
1.09529
1.09178
1.08529
1.06925
1.0469
1.0138
0.982871
0.948271
0.917447
0.914276
0.896881
0.877498
0.850039
0.833767
0.823149
0.816524
0.805407
0.800707
0.800903
0.797262
0.797109
0.800178
0.798745
0.801099
0.801282
0.802914
0.805784
0.807988
0.810009
0.811082
0.814652
0.814371
0.817796
0.817232
0.821565
0.821514
0.826304
0.826281
0.830943
0.831293
0.83369
0.833881
0.839613
0.840145
0.846131
0.846816
0.852579
0.852711
0.858299
0.858474
0.863914
0.861187
0.866285
0.863164
0.866113
0.866336
0.870386
0.870373
0.874655
0.873673
0.877617
0.876254
0.879501
0.878987
0.880971
0.878598
0.883037
0.879552
0.886371
0.904465
0.962257
1.03718
1.07473
1.08372
1.08882
1.08934
1.09088
1.09061
1.09108
1.09076
1.09107
1.09113
1.09164
1.09201
1.09265
1.09317
1.09376
1.09435
1.09512
1.09592
1.09658
1.09721
1.09806
1.09895
1.09972
1.10038
1.10102
1.10162
1.10213
1.10258
1.10299
1.10335
1.10369
1.104
1.1043
1.10458
1.10484
1.10509
1.10533
1.10558
1.10581
1.10605
1.10628
1.10652
1.10674
1.10698
1.1072
1.10742
1.10764
1.10784
1.10805
1.10824
1.10844
1.10861
1.1088
1.10896
1.10914
1.10928
1.10945
1.10958
1.10973
1.10984
1.10997
1.11006
1.11017
1.11024
1.11033
1.11039
1.11045
1.11048
1.11052
1.11054
1.11057
1.11054
1.11056
1.11058
1.11053
1.11048
1.11041
1.11025
1.11015
1.11014
1.10982
1.10925
1.10878
1.10834
1.1072
1.10548
1.10314
1.09939
1.09327
1.08412
1.07209
1.05811
1.04555
1.03402
1.02284
1.01676
1.01638
1.01589
1.0165
1.01535
1.01513
1.01278
1.01379
1.01024
1.01303
1.00746
1.01341
1.00442
1.0153
1.0008
1.0117
0.998166
1.00796
0.998691
1.00556
0.984982
0.984984
1.00556
0.998591
1.0079
0.998137
1.01199
1.0008
1.01547
1.00456
1.01339
1.00765
1.01317
1.01025
1.01392
1.01281
1.01506
1.01543
1.01626
1.01566
1.0152
1.01409
1.01356
1.01404
1.01751
1.02032
1.02097
1.02214
1.02323
1.02377
1.02475
1.02549
1.02668
1.02647
1.02843
1.02888
1.03019
1.03128
1.03217
1.03344
1.03418
1.03532
1.03599
1.03707
1.03772
1.0387
1.03931
1.04032
1.04085
1.04179
1.04232
1.04314
1.04364
1.04437
1.04492
1.0456
1.04587
1.04644
1.04686
1.04751
1.04799
1.04861
1.04885
1.04918
1.04937
1.04982
1.05003
1.05035
1.05033
1.05051
1.05055
1.05063
1.05064
1.05067
1.0506
1.05062
1.05041
1.05026
1.05003
1.04983
1.0495
1.04929
1.0489
1.04858
1.04806
1.0476
1.04704
1.04649
1.04585
1.04524
1.04449
1.04363
1.04265
1.04169
1.0406
1.03946
1.03815
1.03683
1.03542
1.03399
1.0324
1.03078
1.02909
1.02737
1.02455
1.02168
1.02037
1.01914
1.01672
1.01411
1.01137
1.00868
1.00596
1.00336
1.00026
0.997462
0.994629
0.992209
0.989348
0.987249
0.985041
0.98362
0.981747
0.981337
0.980337
0.980753
0.981688
0.981971
0.984051
0.984547
0.986315
0.987588
0.98942
0.991107
0.99281
0.994202
0.996209
0.997796
0.999868
1.00108
1.00299
1.0044
1.00618
1.00782
1.00981
1.01113
1.01304
1.01415
1.01583
1.01741
1.01955
1.02116
1.02309
1.02485
1.02672
1.02841
1.03025
1.03265
1.03445
1.03658
1.03881
1.04096
1.04289
1.04508
1.04765
1.0498
1.05251
1.05508
1.05794
1.06056
1.06347
1.06652
1.07025
1.07303
1.07724
1.07943
1.08429
1.08567
1.09125
1.09356
1.09495
1.0939
1.09029
1.08156
1.06807
1.04654
1.01522
0.98469
0.950845
0.930306
0.920542
0.897001
0.881261
0.868944
0.848268
0.827076
0.819493
0.821925
0.810272
0.807269
0.803721
0.805786
0.804542
0.806758
0.805667
0.80816
0.807688
0.810591
0.810883
0.813713
0.814119
0.817309
0.817345
0.818822
0.818169
0.819491
0.819146
0.821312
0.821231
0.82378
0.822199
0.823434
0.82133
0.825794
0.824494
0.829853
0.829324
0.834463
0.833742
0.839265
0.838506
0.843854
0.840717
0.845788
0.842911
0.84582
0.845399
0.849875
0.849565
0.854463
0.852871
0.857719
0.855838
0.860335
0.857771
0.861929
0.85857
0.864657
0.859048
0.867471
0.88396
0.940847
1.01752
1.05805
1.07083
1.07902
1.0813
1.08427
1.08489
1.08612
1.08632
1.08709
1.08752
1.08837
1.08906
1.09
1.0908
1.09163
1.09244
1.09341
1.09435
1.0951
1.09582
1.09677
1.09775
1.0986
1.09933
1.10007
1.10078
1.1014
1.10196
1.10248
1.10296
1.1034
1.10381
1.10419
1.10456
1.10489
1.10521
1.10551
1.10581
1.10609
1.10637
1.10664
1.10691
1.10717
1.10743
1.10767
1.10791
1.10814
1.10836
1.10857
1.10877
1.10897
1.10915
1.10934
1.1095
1.10967
1.10982
1.10997
1.11009
1.11023
1.11033
1.11044
1.11052
1.1106
1.11066
1.11072
1.11076
1.11079
1.1108
1.11082
1.11081
1.11081
1.11075
1.11073
1.11072
1.11065
1.11064
1.11049
1.11019
1.11015
1.11021
1.10982
1.10931
1.10884
1.10828
1.10755
1.1064
1.10462
1.10192
1.09769
1.09097
1.08114
1.06818
1.05438
1.04073
1.02705
1.01768
1.01666
1.01607
1.01651
1.01542
1.01509
1.01282
1.01377
1.01024
1.01294
1.00749
1.01338
1.00443
1.01531
1.00079
1.01184
0.998053
1.00788
0.998609
1.00557
0.984936
0.984831
1.00554
0.99848
1.00783
0.998073
1.01204
1.0007
1.01546
1.00462
1.01331
1.00764
1.01317
1.01019
1.0139
1.01273
1.01508
1.0154
1.01627
1.01565
1.01513
1.01389
1.01323
1.01284
1.0155
1.01861
1.02001
1.02124
1.02216
1.02254
1.02345
1.0237
1.02502
1.02554
1.02681
1.02761
1.02889
1.02973
1.03097
1.03178
1.03286
1.03372
1.03448
1.03554
1.03618
1.03715
1.0378
1.03875
1.03935
1.0402
1.04079
1.04152
1.04211
1.04277
1.04338
1.04394
1.04431
1.04488
1.04509
1.04573
1.04641
1.04716
1.04728
1.04741
1.04761
1.04811
1.04828
1.04859
1.04868
1.04877
1.04871
1.0488
1.0488
1.04877
1.0487
1.04866
1.04842
1.04823
1.04796
1.04771
1.04733
1.04705
1.0466
1.04622
1.04563
1.04509
1.04446
1.04382
1.0431
1.0424
1.04156
1.0406
1.03952
1.03844
1.03724
1.03598
1.03455
1.03311
1.03157
1.03002
1.02831
1.02658
1.02476
1.02291
1.02
1.01707
1.01562
1.01423
1.01173
1.00909
1.0063
1.00361
1.0009
0.998348
0.995315
0.992645
0.989947
0.987663
0.984975
0.983084
0.981103
0.9799
0.978282
0.978151
0.977514
0.97808
0.979209
0.979855
0.982073
0.982792
0.984933
0.986493
0.988566
0.990533
0.992436
0.994015
0.99631
0.998026
1.00025
1.00149
1.00338
1.00483
1.00663
1.00857
1.01037
1.01181
1.01366
1.01504
1.01654
1.01817
1.0199
1.02175
1.02368
1.02534
1.02709
1.0291
1.03107
1.03294
1.03489
1.03737
1.03951
1.04114
1.04358
1.04576
1.04819
1.05081
1.05386
1.05541
1.05858
1.06101
1.06497
1.06748
1.07151
1.07353
1.07846
1.08033
1.08524
1.08674
1.09015
1.09159
1.09384
1.09246
1.09002
1.08306
1.06913
1.04808
1.02342
0.994413
0.96525
0.939569
0.926236
0.902566
0.893926
0.874927
0.838272
0.827613
0.828757
0.819933
0.80499
0.801337
0.802351
0.80016
0.801001
0.799058
0.801308
0.800756
0.803636
0.804194
0.804953
0.808104
0.808857
0.810223
0.812493
0.811979
0.813316
0.812988
0.814378
0.81573
0.815457
0.817517
0.81736
0.815987
0.815894
0.817492
0.817538
0.819528
0.820625
0.823298
0.820893
0.826171
0.824212
0.828958
0.824576
0.82982
0.826121
0.829379
0.828167
0.833122
0.832098
0.837688
0.835234
0.840293
0.837961
0.843379
0.840441
0.845444
0.840424
0.8481
0.841377
0.851086
0.865186
0.920441
0.997644
1.03944
1.05485
1.06617
1.07063
1.07548
1.07737
1.07966
1.0806
1.082
1.08293
1.08424
1.08533
1.08665
1.0878
1.08894
1.09004
1.09126
1.09238
1.09326
1.09412
1.0952
1.09628
1.09722
1.09805
1.0989
1.09972
1.10046
1.10113
1.10175
1.10233
1.10287
1.10337
1.10384
1.10428
1.10468
1.10506
1.10542
1.10577
1.1061
1.10642
1.10673
1.10703
1.10731
1.1076
1.10786
1.10812
1.10836
1.1086
1.10882
1.10903
1.10923
1.10942
1.10961
1.10978
1.10994
1.11009
1.11023
1.11036
1.11048
1.11058
1.11068
1.11075
1.11083
1.11087
1.11092
1.11095
1.11097
1.11096
1.11097
1.11095
1.11092
1.11087
1.11081
1.11073
1.11067
1.11064
1.11051
1.1103
1.11017
1.11012
1.10984
1.10942
1.10895
1.10842
1.10779
1.10688
1.10549
1.10348
1.10047
1.09548
1.08773
1.07654
1.06279
1.04794
1.03255
1.01943
1.01701
1.01617
1.01648
1.01541
1.01524
1.01283
1.01373
1.0102
1.01287
1.00751
1.01331
1.00444
1.01528
1.00076
1.01174
0.99813
1.00795
0.998693
1.00555
0.985049
0.985
1.00561
0.998535
1.00785
0.998114
1.01202
1.00073
1.01541
1.00462
1.0133
1.00764
1.01316
1.01021
1.01396
1.01275
1.01505
1.01548
1.01621
1.01562
1.0151
1.01393
1.01298
1.01252
1.01402
1.01685
1.01811
1.01894
1.02068
1.02105
1.02239
1.02283
1.02414
1.02434
1.02585
1.0263
1.02758
1.02836
1.02936
1.03032
1.03111
1.03213
1.03277
1.03386
1.03443
1.03546
1.03603
1.03702
1.03758
1.03846
1.03902
1.03977
1.04035
1.04101
1.04158
1.04213
1.04248
1.04305
1.04322
1.04385
1.04467
1.04537
1.04538
1.04546
1.04574
1.04618
1.04636
1.04662
1.04673
1.04677
1.04666
1.04679
1.04679
1.04669
1.04655
1.04646
1.0462
1.04597
1.04566
1.04536
1.04492
1.04458
1.04407
1.04363
1.04298
1.04237
1.04167
1.04096
1.04016
1.03937
1.03845
1.0374
1.03623
1.03505
1.03375
1.03238
1.03086
1.02932
1.02769
1.02606
1.02427
1.02247
1.02057
1.01863
1.01568
1.01276
1.01123
1.00976
1.00727
1.00468
1.00195
0.999336
0.99675
0.994333
0.991467
0.98902
0.986518
0.984442
0.98199
0.98035
0.978638
0.977668
0.976392
0.976518
0.976141
0.977074
0.978514
0.979313
0.981729
0.982662
0.984791
0.986347
0.988503
0.990322
0.992267
0.993782
0.99596
0.99776
1.0001
1.00121
1.00333
1.00469
1.0066
1.00815
1.01032
1.01145
1.01355
1.01451
1.0166
1.01791
1.02004
1.02145
1.02366
1.02509
1.02726
1.02861
1.03119
1.03302
1.03514
1.03676
1.03967
1.04126
1.04386
1.04546
1.04856
1.04966
1.05385
1.05529
1.05898
1.06049
1.06476
1.06631
1.07139
1.07309
1.07774
1.07972
1.08393
1.08595
1.08941
1.09147
1.09272
1.09112
1.08865
1.08004
1.06613
1.04754
1.02278
0.99563
0.968345
0.943247
0.932334
0.911996
0.900108
0.872328
0.851502
0.84611
0.83868
0.821336
0.810932
0.811167
0.810268
0.805055
0.806691
0.805124
0.807373
0.806737
0.808595
0.808438
0.810826
0.810675
0.813721
0.81382
0.816188
0.816021
0.817476
0.816845
0.818265
0.8178
0.81924
0.819991
0.819672
0.818587
0.818832
0.818748
0.819279
0.820439
0.820636
0.821688
0.821548
0.823058
0.823505
0.825564
0.819468
0.823331
0.81845
0.820864
0.817788
0.822092
0.819491
0.824859
0.82155
0.826996
0.823333
0.829263
0.824997
0.831196
0.825683
0.833389
0.825885
0.835764
0.848057
0.90145
0.978112
1.01961
1.03656
1.05044
1.05726
1.06433
1.06783
1.0715
1.07343
1.07568
1.07727
1.07916
1.08077
1.08256
1.08414
1.08566
1.08711
1.08864
1.08999
1.09106
1.09208
1.09332
1.09454
1.0956
1.09654
1.0975
1.09844
1.0993
1.10008
1.10082
1.1015
1.10213
1.10273
1.10328
1.1038
1.10427
1.10472
1.10513
1.10554
1.10591
1.10628
1.10662
1.10696
1.10727
1.10758
1.10786
1.10814
1.1084
1.10865
1.10888
1.1091
1.10931
1.10951
1.1097
1.10987
1.11004
1.11019
1.11033
1.11046
1.11058
1.11068
1.11077
1.11084
1.11091
1.11096
1.11099
1.11102
1.11103
1.11102
1.11101
1.11098
1.11095
1.1109
1.11082
1.11073
1.11066
1.11062
1.11049
1.11033
1.11015
1.10998
1.10977
1.10951
1.1091
1.10859
1.10804
1.10732
1.10615
1.1046
1.10235
1.0986
1.09257
1.08325
1.07036
1.05509
1.03873
1.02229
1.01745
1.01633
1.01652
1.01532
1.01514
1.0128
1.01365
1.0102
1.01288
1.00755
1.01328
1.00448
1.01531
1.00076
1.01174
0.99796
1.00794
0.998708
1.00556
0.984969
0.984736
1.00563
0.998521
1.00785
0.998021
1.01206
1.00069
1.01543
1.00462
1.01332
1.0076
1.01319
1.0102
1.014
1.01268
1.01503
1.01546
1.01624
1.0156
1.01506
1.01382
1.01275
1.01196
1.01252
1.01499
1.01714
1.01786
1.01916
1.01952
1.02065
1.02108
1.02227
1.02286
1.02396
1.02473
1.02582
1.02662
1.02767
1.0285
1.02938
1.03029
1.03101
1.03194
1.03272
1.03349
1.03425
1.03509
1.03571
1.03652
1.03708
1.03781
1.0384
1.03903
1.03962
1.04013
1.04056
1.04111
1.04113
1.04175
1.04264
1.04337
1.04335
1.04336
1.04361
1.0441
1.0442
1.04441
1.04461
1.04459
1.04441
1.04453
1.04452
1.04438
1.04422
1.04407
1.04378
1.04352
1.04317
1.04282
1.04233
1.04193
1.04136
1.04086
1.04015
1.03949
1.03872
1.03794
1.03708
1.03621
1.03521
1.03409
1.03285
1.03159
1.03021
1.02876
1.02718
1.02558
1.0239
1.02222
1.0204
1.01857
1.01664
1.01467
1.01175
1.00893
1.00741
1.00591
1.00351
1.00107
0.998479
0.996044
0.993644
0.991485
0.988887
0.986869
0.984721
0.982895
0.980969
0.979444
0.978352
0.977269
0.976967
0.976275
0.977043
0.976986
0.979338
0.979158
0.982544
0.982452
0.985572
0.986233
0.989237
0.990114
0.993442
0.993815
0.997195
0.997559
1.00118
1.00112
1.00447
1.00438
1.00768
1.00798
1.01131
1.0113
1.0147
1.01453
1.01771
1.01788
1.02112
1.02155
1.02467
1.02511
1.02828
1.02881
1.03212
1.033
1.03652
1.03713
1.04071
1.04132
1.04473
1.04578
1.04981
1.05028
1.0547
1.05561
1.06016
1.06144
1.06581
1.0677
1.07187
1.07416
1.07799
1.08056
1.08365
1.08546
1.0884
1.0897
1.09102
1.08922
1.08752
1.08093
1.06708
1.04927
1.02727
1.00461
0.976948
0.952798
0.940098
0.919894
0.904373
0.877748
0.861144
0.850294
0.837479
0.820833
0.81652
0.810781
0.806933
0.805
0.801705
0.804107
0.803111
0.805182
0.804305
0.806369
0.8065
0.808297
0.81013
0.810601
0.812659
0.812913
0.814145
0.813558
0.815002
0.814893
0.816023
0.81738
0.816968
0.816153
0.815474
0.816277
0.816118
0.81752
0.817661
0.81864
0.818654
0.820121
0.820187
0.821855
0.817908
0.819322
0.815801
0.816193
0.814742
0.815614
0.81418
0.817167
0.814952
0.818042
0.814279
0.81889
0.814315
0.818945
0.814424
0.820723
0.814616
0.822026
0.832768
0.884272
0.959832
1.00034
1.01713
1.03258
1.04143
1.05082
1.05617
1.06148
1.06466
1.06797
1.07041
1.07303
1.07526
1.07763
1.07972
1.08171
1.08358
1.08549
1.08714
1.08844
1.08967
1.0911
1.09249
1.0937
1.09478
1.09587
1.09694
1.09793
1.09883
1.09968
1.10047
1.10121
1.1019
1.10254
1.10314
1.10368
1.1042
1.10468
1.10514
1.10556
1.10598
1.10636
1.10673
1.10707
1.10741
1.10772
1.10802
1.10829
1.10856
1.1088
1.10904
1.10926
1.10946
1.10966
1.10984
1.11001
1.11016
1.11031
1.11044
1.11056
1.11066
1.11076
1.11083
1.11089
1.11094
1.11097
1.111
1.111
1.111
1.11098
1.11094
1.11092
1.11087
1.11079
1.11071
1.11062
1.11053
1.11043
1.11032
1.11014
1.10993
1.10975
1.10954
1.10921
1.10877
1.10828
1.10769
1.10679
1.10551
1.10372
1.10082
1.09611
1.08849
1.07691
1.0619
1.04524
1.02637
1.01827
1.01647
1.01658
1.01533
1.0153
1.01272
1.01379
1.01018
1.01289
1.0076
1.01323
1.00453
1.01525
1.0007
1.01185
0.998086
1.00791
0.998681
1.00558
0.985017
0.984976
1.00568
0.998523
1.00792
0.998014
1.01211
1.00068
1.01537
1.00461
1.01328
1.00766
1.01318
1.0102
1.01402
1.01268
1.01505
1.01547
1.01613
1.01566
1.01504
1.01395
1.01263
1.01154
1.0119
1.01311
1.01501
1.01567
1.0174
1.01799
1.01917
1.01979
1.02088
1.02143
1.02257
1.02319
1.02424
1.02498
1.02587
1.02674
1.02745
1.02842
1.02901
1.03002
1.0306
1.03153
1.03212
1.03305
1.03358
1.03447
1.03495
1.03574
1.03629
1.03693
1.03749
1.03801
1.03838
1.03892
1.03906
1.03961
1.04043
1.04109
1.04106
1.04113
1.04141
1.04186
1.04194
1.04204
1.04224
1.04222
1.04208
1.04218
1.04213
1.04192
1.04171
1.04152
1.04122
1.04092
1.04053
1.04013
1.0396
1.03914
1.03853
1.03797
1.03721
1.0365
1.03568
1.03484
1.03392
1.033
1.03194
1.03076
1.02947
1.02815
1.02673
1.02524
1.02364
1.02202
1.02033
1.01866
1.01685
1.01505
1.01317
1.01124
1.00844
1.00579
1.00435
1.00294
1.00072
0.998543
0.996247
0.994169
0.992135
0.990247
0.988123
0.98617
0.984264
0.98257
0.980777
0.979335
0.978329
0.977185
0.97666
0.976217
0.976927
0.977009
0.979269
0.979021
0.982611
0.982375
0.985632
0.986225
0.989333
0.989795
0.993082
0.993399
0.996883
0.997276
1.00079
1.00073
1.0042
1.0041
1.0074
1.00779
1.01104
1.01091
1.01426
1.01407
1.01732
1.01759
1.02069
1.02143
1.02463
1.0251
1.02807
1.02878
1.03175
1.03276
1.03579
1.03692
1.03998
1.04155
1.04421
1.04533
1.04908
1.05028
1.05388
1.05579
1.05919
1.06138
1.06457
1.06743
1.07073
1.07367
1.07723
1.08026
1.08383
1.08525
1.08761
1.08873
1.08972
1.08816
1.08608
1.07734
1.06352
1.04649
1.02845
1.0052
0.980845
0.958236
0.943818
0.926197
0.908931
0.886634
0.872056
0.858943
0.842199
0.833925
0.822918
0.820225
0.813826
0.811146
0.810006
0.810123
0.808868
0.811025
0.81007
0.811995
0.811482
0.813617
0.813793
0.816541
0.816672
0.818554
0.817951
0.818969
0.818006
0.819594
0.819222
0.820686
0.820372
0.819652
0.818716
0.819432
0.818959
0.82033
0.820334
0.821208
0.821111
0.822486
0.822825
0.823497
0.820659
0.821176
0.818466
0.817862
0.816983
0.817066
0.816047
0.816851
0.815753
0.816333
0.814387
0.815276
0.813569
0.813831
0.811874
0.812655
0.810406
0.812465
0.821448
0.869799
0.943807
0.982661
0.997658
1.01359
1.02378
1.03519
1.04244
1.04955
1.05419
1.05876
1.06222
1.06573
1.06872
1.07177
1.07448
1.07701
1.07939
1.08175
1.08377
1.08535
1.08685
1.08852
1.09011
1.09149
1.09273
1.09398
1.0952
1.09632
1.09736
1.09833
1.09924
1.10009
1.10088
1.10161
1.1023
1.10293
1.10352
1.10406
1.10458
1.10506
1.10552
1.10595
1.10636
1.10674
1.10711
1.10744
1.10777
1.10806
1.10835
1.10861
1.10886
1.10909
1.10931
1.10951
1.1097
1.10988
1.11004
1.11019
1.11032
1.11045
1.11056
1.11065
1.11073
1.1108
1.11084
1.11088
1.1109
1.11091
1.11091
1.11089
1.11086
1.11083
1.11078
1.11072
1.11064
1.11054
1.11044
1.11035
1.11027
1.11011
1.10991
1.10974
1.10956
1.10929
1.10892
1.10851
1.10796
1.10725
1.10623
1.10478
1.10248
1.09875
1.09256
1.08244
1.06817
1.05173
1.03133
1.01948
1.01674
1.01666
1.01536
1.01527
1.01281
1.01366
1.01019
1.0129
1.00763
1.01321
1.0045
1.0153
1.00067
1.01179
0.997985
1.00791
0.998698
1.00554
0.984974
0.984762
1.00566
0.998483
1.00781
0.998036
1.01205
1.00061
1.01542
1.00454
1.0133
1.00762
1.01324
1.0102
1.01404
1.01259
1.01494
1.01557
1.01604
1.0157
1.01502
1.01391
1.01257
1.01127
1.01127
1.01173
1.01391
1.01472
1.01566
1.01646
1.01723
1.01806
1.01888
1.01971
1.02053
1.02134
1.02222
1.023
1.02391
1.0247
1.02551
1.02633
1.02709
1.02785
1.02866
1.02935
1.03004
1.03087
1.03143
1.03226
1.03276
1.0335
1.03408
1.03464
1.03517
1.03573
1.0361
1.03675
1.03691
1.03736
1.03797
1.03855
1.03867
1.03887
1.03905
1.0395
1.0395
1.03958
1.03971
1.03973
1.0396
1.03963
1.03957
1.03934
1.03908
1.03888
1.03852
1.03821
1.03779
1.03735
1.03678
1.03628
1.03562
1.03503
1.03423
1.03348
1.03262
1.03175
1.03079
1.02983
1.02873
1.02752
1.02621
1.02488
1.02345
1.02197
1.02039
1.0188
1.01717
1.01556
1.01384
1.01213
1.01036
1.00856
1.00605
1.00368
1.00241
1.00127
0.999576
0.997551
0.995509
0.993634
0.991786
0.990042
0.988049
0.986232
0.984422
0.982811
0.980974
0.979593
0.978656
0.977612
0.977101
0.976826
0.977452
0.977497
0.97964
0.979734
0.982682
0.98274
0.985805
0.986399
0.989589
0.990232
0.993359
0.993987
0.997276
0.997907
1.00128
1.00136
1.00462
1.00474
1.00752
1.00819
1.01123
1.01153
1.01475
1.01478
1.01776
1.0183
1.02101
1.02175
1.0247
1.02585
1.02838
1.02959
1.03236
1.03367
1.03628
1.03774
1.0403
1.04211
1.04506
1.04655
1.04978
1.05144
1.05457
1.05639
1.05967
1.06193
1.06512
1.06785
1.07157
1.0738
1.0773
1.07941
1.08272
1.08422
1.08681
1.08764
1.08843
1.08692
1.08557
1.07689
1.06453
1.04955
1.03172
1.01153
0.990092
0.965896
0.953138
0.932195
0.91656
0.894436
0.878598
0.862358
0.847178
0.836841
0.827754
0.817714
0.81637
0.810119
0.80918
0.807139
0.808696
0.807683
0.809436
0.808325
0.810513
0.811071
0.811297
0.814432
0.814658
0.81614
0.815403
0.81624
0.815537
0.817247
0.816933
0.818684
0.818503
0.816962
0.81721
0.816828
0.817067
0.817614
0.818831
0.819136
0.819475
0.820279
0.821832
0.821737
0.81994
0.819586
0.817361
0.816068
0.815711
0.81479
0.815157
0.814714
0.815099
0.814111
0.814241
0.813115
0.812505
0.810812
0.810546
0.810508
0.807699
0.807768
0.814453
0.858472
0.930937
0.968012
0.980165
0.995177
1.00553
1.01817
1.02698
1.03583
1.04201
1.04799
1.05263
1.05716