/*--------------------------------*- C++ -*----------------------------------*\
| =========                 |                                                 |
| \\      /  F ield         | OpenFOAM: The Open Source CFD Toolbox           |
|  \\    /   O peration     | Version:  v2006                                 |
|   \\  /    A nd           | Website:  www.openfoam.com                      |
|    \\/     M anipulation  |                                                 |
\*---------------------------------------------------------------------------*/
FoamFile
{
    version     2.0;
    format      ascii;
    class       volVectorField;
    location    "220";
    object      U;
}
// * * * * * * * * * * * * * * * * * * * * * * * * * * * * * * * * * * * * * //

dimensions      [0 1 -1 0 0 0 0];


internalField   nonuniform List<vector> 
93840
(
(0.886391 0.080381 -2.95131e-17)
(0.857835 0.053783 -2.75586e-16)
(0.853829 0.0754059 -3.56244e-17)
(0.859066 0.03443 6.97476e-17)
(0.848315 0.0620168 1.78579e-16)
(0.841758 0.0397564 -3.07448e-17)
(0.834896 0.0649902 5.11197e-17)
(0.827059 0.0362701 -4.27923e-17)
(0.828984 0.0654656 -4.08569e-17)
(0.826609 0.0332945 -7.57979e-17)
(0.82652 0.0619251 -5.96083e-18)
(0.827964 0.0330839 -3.05486e-17)
(0.817768 0.0579669 3.78993e-17)
(0.822433 0.0318878 1.40848e-16)
(0.805016 0.0531769 9.13973e-17)
(0.809207 0.032126 1.76167e-16)
(0.792291 0.0505673 1.22596e-16)
(0.797127 0.0375939 1.62349e-16)
(0.792498 0.0495518 1.54184e-16)
(0.795023 0.0466176 1.48933e-16)
(0.79599 0.0519237 1.40991e-16)
(0.787373 0.0456882 1.27012e-16)
(0.760084 0.0444316 1.19018e-16)
(0.719811 0.034088 1.11374e-16)
(0.697506 0.0298303 1.05222e-16)
(0.688843 0.0219742 1.02036e-16)
(0.688536 0.014884 9.55821e-17)
(0.686421 0.00815536 9.15562e-17)
(0.67663 0.00521043 8.11237e-17)
(0.648027 0.00724188 8.19429e-17)
(0.628665 0.00348864 7.8003e-17)
(0.559751 -0.0043359 7.95486e-17)
(0.570128 -0.0261032 7.80238e-17)
(0.590072 -0.0315577 7.92499e-17)
(0.540584 -0.0285947 7.79982e-17)
(0.559893 -0.0315078 7.89475e-17)
(0.525292 -0.0266662 7.80186e-17)
(0.539637 -0.0295143 7.86921e-17)
(0.511799 -0.024564 7.80614e-17)
(0.522204 -0.026393 7.85183e-17)
(0.499582 -0.0214479 7.80364e-17)
(0.508633 -0.0227734 7.83933e-17)
(0.49009 -0.0190047 7.80653e-17)
(0.497 -0.0197358 7.82704e-17)
(0.480657 -0.0170661 7.80648e-17)
(0.485065 -0.0172273 7.81922e-17)
(0.470092 -0.0145537 7.80095e-17)
(0.473918 -0.0138515 7.81269e-17)
(0.46147 -0.0119273 7.79785e-17)
(0.463326 -0.0111636 7.80503e-17)
(0.452327 -0.0088916 7.79454e-17)
(0.4544 -0.00814286 7.79696e-17)
(0.443664 -0.00697538 7.79052e-17)
(0.442238 -0.00510621 7.78631e-17)
(0.433783 -0.00147791 7.78428e-17)
(0.437963 -0.000255365 7.7841e-17)
(0.431312 0.000136792 7.78372e-17)
(0.430037 0.000363966 7.78008e-17)
(0.420413 0.00157324 7.77757e-17)
(0.420085 0.00433949 7.77205e-17)
(0.415308 0.00607139 7.77163e-17)
(0.413578 0.00680613 7.76682e-17)
(0.406464 0.00919071 7.76835e-17)
(0.407088 0.0115413 7.77611e-17)
(0.402658 0.0128239 7.78653e-17)
(0.401731 0.0146293 7.77175e-17)
(0.398446 0.0166771 7.78992e-17)
(0.399224 0.0181627 7.79183e-17)
(0.395627 0.0193372 7.81733e-17)
(0.395434 0.0212032 7.83321e-17)
(0.39324 0.0226322 7.84456e-17)
(0.39317 0.024253 7.89169e-17)
(0.391229 0.02597 7.89871e-17)
(0.392036 0.0274566 7.9406e-17)
(0.390221 0.028732 7.86217e-17)
(0.391065 0.0304806 7.85224e-17)
(0.390367 0.0317952 7.94221e-17)
(0.391245 0.0335073 7.91649e-17)
(0.39134 0.0350074 7.94215e-17)
(0.392687 0.0362646 7.89767e-17)
(0.392531 0.0375733 7.86042e-17)
(0.393693 0.0390945 7.88865e-17)
(0.394061 0.0407248 7.86856e-17)
(0.396206 0.0424928 7.87447e-17)
(0.397793 0.0437835 7.78035e-17)
(0.399673 0.0452496 7.82043e-17)
(0.401683 0.0466363 7.76355e-17)
(0.403677 0.0479166 7.65374e-17)
(0.405486 0.0493707 7.62867e-17)
(0.407704 0.0511214 7.51397e-17)
(0.411147 0.0531002 7.63797e-17)
(0.415213 0.0546357 7.40643e-17)
(0.419083 0.0561408 7.28894e-17)
(0.423335 0.0576507 7.1157e-17)
(0.427895 0.0591882 7.18135e-17)
(0.433199 0.0607329 7.01673e-17)
(0.438638 0.0620097 7.09434e-17)
(0.4441 0.0633977 6.63324e-17)
(0.449936 0.0647519 6.64177e-17)
(0.45649 0.0662209 6.6661e-17)
(0.46338 0.0673088 6.15084e-17)
(0.470009 0.0683842 6.12514e-17)
(0.476366 0.0702917 6.13999e-17)
(0.490402 0.0737874 5.43226e-17)
(0.506606 0.0730757 5.39306e-17)
(0.510986 0.0696451 4.54045e-17)
(0.512516 0.0700967 5.03911e-17)
(0.522634 0.0729343 4.25929e-17)
(0.534736 0.0733421 5.12646e-17)
(0.546809 0.0733928 4.33024e-17)
(0.558791 0.0727387 4.90904e-17)
(0.570639 0.071898 4.05777e-17)
(0.58213 0.0707624 4.69225e-17)
(0.596434 0.0700972 4.10743e-17)
(0.609993 0.0675699 4.88437e-17)
(0.623189 0.0648771 4.62249e-17)
(0.635128 0.0613957 4.81391e-17)
(0.649388 0.058613 4.7532e-17)
(0.660929 0.0532267 4.93912e-17)
(0.672584 0.0487113 4.86587e-17)
(0.68177 0.0421665 5.01173e-17)
(0.692722 0.0373365 5.14204e-17)
(0.698155 0.0287016 5.23301e-17)
(0.705807 0.0227851 5.28805e-17)
(0.708722 0.0125729 5.46859e-17)
(0.706746 0.00774883 5.46723e-17)
(0.711203 -0.000345891 5.71074e-17)
(0.703999 -0.00732086 5.73203e-17)
(0.706183 -0.0107504 5.95594e-17)
(0.702911 -0.019018 5.96532e-17)
(0.699108 -0.0226617 6.13849e-17)
(0.695473 -0.0286363 6.10121e-17)
(0.690291 -0.0313215 6.21659e-17)
(0.687706 -0.0361599 6.07893e-17)
(0.684625 -0.0396656 6.21693e-17)
(0.680365 -0.0446177 6.00739e-17)
(0.675703 -0.0471896 6.22051e-17)
(0.671753 -0.050731 6.1514e-17)
(0.668743 -0.05343 6.29599e-17)
(0.666109 -0.0563388 6.23594e-17)
(0.663531 -0.059541 6.38954e-17)
(0.661192 -0.0631139 6.26789e-17)
(0.656206 -0.066274 6.40953e-17)
(0.653258 -0.0684124 6.53266e-17)
(0.650165 -0.0715865 6.5002e-17)
(0.64726 -0.0744938 6.45732e-17)
(0.644845 -0.077991 6.45883e-17)
(0.642242 -0.0817344 6.29787e-17)
(0.63824 -0.0854185 6.21659e-17)
(0.633676 -0.0892071 6.14416e-17)
(0.629463 -0.0917163 5.89122e-17)
(0.625462 -0.0953347 5.86172e-17)
(0.620573 -0.0979883 5.62352e-17)
(0.615686 -0.102729 5.61554e-17)
(0.610055 -0.106084 5.4633e-17)
(0.605348 -0.109969 5.44327e-17)
(0.598307 -0.112283 5.37439e-17)
(0.590568 -0.117221 5.40262e-17)
(0.582449 -0.121714 5.30186e-17)
(0.575508 -0.124568 5.56625e-17)
(0.568215 -0.125216 5.58312e-17)
(0.560196 -0.128723 5.75148e-17)
(0.550374 -0.134075 5.71065e-17)
(0.539685 -0.141311 5.9509e-17)
(0.529982 -0.14626 5.96855e-17)
(0.518389 -0.148694 6.17056e-17)
(0.503565 -0.147783 6.21079e-17)
(0.486484 -0.150116 6.5036e-17)
(0.470441 -0.157029 6.42134e-17)
(0.454365 -0.166739 6.69869e-17)
(0.437262 -0.170646 6.61238e-17)
(0.4145 -0.165417 6.89993e-17)
(0.384635 -0.158388 6.93183e-17)
(0.351661 -0.162654 7.10678e-17)
(0.324959 -0.16478 7.23633e-17)
(0.287227 -0.154573 7.3153e-17)
(0.241463 -0.140898 7.56632e-17)
(0.177588 -0.115855 7.63332e-17)
(0.131372 -0.0828396 7.71127e-17)
(0.0250801 -0.0099827 7.0331e-17)
(0.0195694 0.0196096 8.63349e-17)
(-0.0905194 0.236272 8.03117e-17)
(-0.0730757 0.323451 7.7746e-17)
(-0.0597116 0.599676 7.53046e-17)
(0.126496 0.740967 7.44262e-17)
(0.269144 0.949929 7.40441e-17)
(0.517274 0.973529 7.21679e-17)
(0.724733 0.92145 7.27072e-17)
(0.900878 0.831252 7.33919e-17)
(0.898658 0.797834 7.17753e-17)
(0.963315 0.772255 7.0301e-17)
(1.04124 0.684704 7.07284e-17)
(1.13953 0.61855 6.94456e-17)
(1.20912 0.614489 6.99278e-17)
(1.23098 0.592971 6.9749e-17)
(1.248 0.538911 6.73109e-17)
(1.2659 0.487716 6.55652e-17)
(1.27009 0.457261 6.78991e-17)
(1.26892 0.434471 6.75645e-17)
(1.27413 0.412481 6.53694e-17)
(1.26131 0.385018 6.47134e-17)
(1.26066 0.3642 6.4509e-17)
(1.24736 0.34555 6.38578e-17)
(1.24348 0.328369 6.28914e-17)
(1.23477 0.312694 6.23693e-17)
(1.22728 0.297252 6.08299e-17)
(1.21403 0.283346 6.06668e-17)
(1.20695 0.271019 5.90587e-17)
(1.19177 0.25772 5.83883e-17)
(1.18544 0.247086 5.77615e-17)
(1.17098 0.2342 5.78352e-17)
(1.16892 0.224108 5.62349e-17)
(1.15603 0.212967 5.54692e-17)
(1.15436 0.203957 5.40667e-17)
(1.14206 0.193695 5.31004e-17)
(1.13902 0.185769 5.2273e-17)
(1.12594 0.176762 5.2037e-17)
(1.12231 0.169847 5.08076e-17)
(1.10983 0.160429 4.97456e-17)
(1.10851 0.15353 4.83591e-17)
(1.10525 0.143776 4.75263e-17)
(1.10259 0.135979 4.58485e-17)
(1.08915 0.128911 4.48505e-17)
(1.08579 0.12372 4.3737e-17)
(1.07199 0.116744 4.28513e-17)
(1.06733 0.112493 4.21993e-17)
(1.05547 0.10688 4.06027e-17)
(1.05245 0.102329 3.99834e-17)
(1.04041 0.0973201 3.92e-17)
(1.03622 0.092957 3.90461e-17)
(1.02911 0.0883967 3.75737e-17)
(1.03673 0.0817945 3.79235e-17)
(1.0281 0.074528 3.80454e-17)
(1.03451 0.0685811 3.98466e-17)
(1.02774 0.0631919 4.05946e-17)
(1.02586 0.0580102 4.21062e-17)
(1.01846 0.0541334 4.3845e-17)
(1.01583 0.0497079 4.62519e-17)
(1.00832 0.0458184 4.81182e-17)
(1.00551 0.0417321 5.09805e-17)
(1.00273 0.0362044 5.19843e-17)
(0.999192 0.0312169 5.33289e-17)
(0.99998 0.0287559 5.3542e-17)
(0.993705 0.0224421 5.42835e-17)
(1.00162 0.0177165 5.45754e-17)
(0.992364 0.0127048 5.41334e-17)
(0.997725 0.00977124 5.42394e-17)
(0.991057 0.00271516 5.35091e-17)
(0.984946 0.000324898 5.35497e-17)
(0.920944 -0.00256383 5.3052e-17)
(0.743684 -0.00171697 5.23126e-17)
(0.342491 0.00493164 5.191e-17)
(0.0520285 -0.000700731 5.20963e-17)
(0.0753345 -0.00339082 5.18396e-17)
(0.0688185 -0.00294104 5.18241e-17)
(0.0944646 -0.0041443 5.26833e-17)
(0.0945565 -0.0044849 5.46628e-17)
(0.111658 -0.00602798 5.77207e-17)
(0.113468 -0.00679355 6.14452e-17)
(0.123488 -0.00800148 6.35648e-17)
(0.123949 -0.00866956 6.91357e-17)
(0.127623 -0.00955813 7.35264e-17)
(0.125439 -0.0100261 7.96299e-17)
(0.124361 -0.0104756 8.3794e-17)
(0.119026 -0.0106204 8.98621e-17)
(0.114116 -0.0106324 9.23902e-17)
(0.107355 -0.0104392 9.83806e-17)
(0.0995186 -0.0104496 1.00241e-16)
(0.0870048 -0.0096594 1.07594e-16)
(0.0764573 -0.00826647 1.08165e-16)
(0.0711145 -0.00760237 1.10285e-16)
(0.0645754 -0.00732241 1.13369e-16)
(0.0535027 -0.00652106 1.17144e-16)
(0.0421395 -0.00516189 1.14559e-16)
(0.035293 -0.00420543 1.16042e-16)
(0.0290099 -0.00349272 1.15559e-16)
(0.0210431 -0.00262179 1.16656e-16)
(0.0118835 -0.00145586 1.12597e-16)
(0.00425539 -0.00044194 1.20246e-16)
(-0.00305375 0.000558368 1.17807e-16)
(-0.0096986 0.00151583 1.18885e-16)
(-0.0162541 0.00250993 1.17293e-16)
(-0.0221611 0.00339484 1.07549e-16)
(-0.0281435 0.00433086 1.03817e-16)
(-0.0332226 0.00517594 1.00154e-16)
(-0.038564 0.0060315 9.48446e-17)
(-0.042634 0.00671745 9.61468e-17)
(-0.0473644 0.00752871 9.89225e-17)
(-0.0506949 0.00814786 9.83616e-17)
(-0.0550325 0.00892905 9.45021e-17)
(-0.057689 0.00945248 9.52842e-17)
(-0.0616642 0.0101948 8.92123e-17)
(-0.0637196 0.010635 9.54317e-17)
(-0.0673953 0.0113406 9.0817e-17)
(-0.0689123 0.011698 8.84363e-17)
(-0.0723754 0.0123874 8.88859e-17)
(-0.0734193 0.0126763 8.84538e-17)
(-0.0766865 0.0133537 8.95231e-17)
(-0.077315 0.0135646 8.97388e-17)
(-0.0803611 0.0141757 9.03763e-17)
(-0.0805975 0.0142903 8.81244e-17)
(-0.0834319 0.0149067 9.07484e-17)
(-0.0832973 0.0150552 8.9707e-17)
(-0.0858806 0.0157253 9.27916e-17)
(-0.0853584 0.0157569 9.19394e-17)
(-0.0876752 0.0162207 9.31511e-17)
(-0.0868334 0.0160902 9.56426e-17)
(-0.0888674 0.0165048 9.37542e-17)
(-0.0876608 0.0163645 9.49858e-17)
(-0.0893347 0.0167773 9.56138e-17)
(-0.0877482 0.0165742 9.6578e-17)
(-0.0890266 0.0168654 9.65514e-17)
(-0.0870393 0.0165047 9.78548e-17)
(-0.088011 0.0166471 9.87371e-17)
(-0.0856589 0.016228 9.87915e-17)
(-0.0862396 0.0163846 1.00937e-16)
(-0.083433 0.0159757 9.88884e-17)
(-0.0834879 0.016089 1.0086e-16)
(-0.0800824 0.015525 1.00708e-16)
(-0.0796405 0.0154162 1.02565e-16)
(-0.0756372 0.0146627 1.01148e-16)
(-0.0746831 0.0144068 1.0447e-16)
(-0.0699531 0.013526 1.03288e-16)
(-0.0681705 0.0131455 1.04462e-16)
(-0.062327 0.0120282 1.04958e-16)
(-0.059582 0.0112008 1.04709e-16)
(-0.0523684 0.0101151 1.0582e-16)
(-0.0484211 0.0085523 1.06483e-16)
(-0.039521 0.00662725 1.06936e-16)
(-0.0339831 0.00507654 1.07547e-16)
(-0.0228175 0.00110213 1.08379e-16)
(-0.0164298 0.000897671 1.07894e-16)
(0.00224167 -0.00350374 1.09702e-16)
(0.00544852 -0.0158167 1.09331e-16)
(0.0409873 -0.0412273 1.09558e-16)
(0.0610705 -0.0829083 1.10979e-16)
(0.164677 0.0155908 1.04612e-16)
(0.26009 0.0166634 9.4827e-17)
(0.363425 0.032501 9.30394e-17)
(0.469456 0.0351666 8.62293e-17)
(0.559558 0.0372496 8.78867e-17)
(0.628115 0.0347201 9.00483e-17)
(0.668243 0.0323614 9.65338e-17)
(0.692235 0.0341201 1.01849e-16)
(0.711364 0.0359354 1.0871e-16)
(0.751384 0.045726 1.16874e-16)
(0.784566 0.0464673 1.22976e-16)
(0.795927 0.0522034 1.38487e-16)
(0.794596 0.0464657 1.47985e-16)
(0.792673 0.0492354 1.55696e-16)
(0.796472 0.0378172 1.68226e-16)
(0.792972 0.0500996 1.6525e-16)
(0.809272 0.0321366 1.20124e-16)
(0.804648 0.0530896 1.30602e-16)
(0.82218 0.0319413 2.02283e-17)
(0.81768 0.0579157 5.6392e-17)
(0.828159 0.0330789 9.34712e-18)
(0.826401 0.061767 1.96757e-17)
(0.826659 0.0333578 -3.44481e-17)
(0.828927 0.065371 -2.39499e-17)
(0.827048 0.0362592 4.32712e-17)
(0.834859 0.0648923 -7.42373e-17)
(0.842185 0.0395929 9.0071e-17)
(0.848435 0.0619028 -1.77118e-16)
(0.859479 0.0345816 3.82266e-16)
(0.853868 0.0753587 -4.34403e-17)
(0.857766 0.0537367 -2.80825e-16)
(0.886509 0.0807495 -3.51277e-17)
(0.886607 0.0807338 -3.81007e-17)
(0.857821 0.0537548 -2.73003e-16)
(0.853859 0.0753759 -4.10067e-17)
(0.859264 0.0345562 2.60182e-16)
(0.848284 0.0619422 7.0364e-17)
(0.841571 0.0396749 3.42906e-17)
(0.834831 0.0649316 -7.64133e-17)
(0.827068 0.0362281 1.16157e-17)
(0.828984 0.0654127 -2.91202e-17)
(0.826568 0.0332517 6.26287e-18)
(0.826468 0.0618831 4.38998e-17)
(0.827975 0.0330599 -3.12527e-17)
(0.817669 0.0580059 5.29728e-18)
(0.822558 0.031839 2.2573e-17)
(0.805447 0.0530305 1.21807e-16)
(0.808851 0.0324716 1.35269e-16)
(0.793354 0.0501692 1.67833e-16)
(0.797104 0.0377115 1.71339e-16)
(0.792738 0.049345 1.54932e-16)
(0.795788 0.0466377 1.47491e-16)
(0.798895 0.0518502 1.42399e-16)
(0.794373 0.0467424 1.28624e-16)
(0.774047 0.0466934 1.21552e-16)
(0.737225 0.037472 1.1427e-16)
(0.711985 0.034794 1.08087e-16)
(0.690949 0.0290728 1.0493e-16)
(0.676773 0.0226303 9.90781e-17)
(0.667324 0.0175443 9.96649e-17)
(0.653575 0.0111681 9.71393e-17)
(0.649703 -0.0018114 9.34627e-17)
(0.645775 -0.00594219 9.11654e-17)
(0.642318 -0.0241679 9.01302e-17)
(0.632054 0.00117359 8.91828e-17)
(0.61985 -0.0279489 8.95265e-17)
(0.609996 -0.0164769 8.88713e-17)
(0.599579 -0.0256402 8.9196e-17)
(0.592205 -0.021203 8.86925e-17)
(0.583502 -0.0235904 8.89912e-17)
(0.576197 -0.0217519 8.85389e-17)
(0.569806 -0.0213213 8.87764e-17)
(0.56204 -0.0199727 8.84382e-17)
(0.557826 -0.0185762 8.861e-17)
(0.550222 -0.0177764 8.8292e-17)
(0.547227 -0.0164106 8.84882e-17)
(0.538953 -0.0156479 8.81759e-17)
(0.536447 -0.0144911 8.83184e-17)
(0.527813 -0.0131264 8.80894e-17)
(0.526077 -0.0117193 8.81827e-17)
(0.517932 -0.0103936 8.80092e-17)
(0.516086 -0.00930972 8.80513e-17)
(0.508291 -0.00738479 8.79079e-17)
(0.506932 -0.00644655 8.79337e-17)
(0.498965 -0.00515886 8.78266e-17)
(0.4965 -0.00352454 8.78003e-17)
(0.489724 -0.000139597 8.77164e-17)
(0.490877 0.00130562 8.7763e-17)
(0.485072 0.00206198 8.76909e-17)
(0.482701 0.00232896 8.77019e-17)
(0.475116 0.00418317 8.76004e-17)
(0.473927 0.00663879 8.7593e-17)
(0.469347 0.00813753 8.75569e-17)
(0.467046 0.0088511 8.75441e-17)
(0.461211 0.0113688 8.75515e-17)
(0.460937 0.013902 8.75154e-17)
(0.456845 0.0155895 8.75781e-17)
(0.455775 0.0173271 8.75648e-17)
(0.452815 0.0196099 8.76659e-17)
(0.453109 0.021107 8.75734e-17)
(0.449938 0.0224118 8.77808e-17)
(0.449679 0.0244752 8.77337e-17)
(0.447678 0.0261917 8.76919e-17)
(0.447663 0.0277686 8.75869e-17)
(0.445956 0.029653 8.78276e-17)
(0.446696 0.0313912 8.76142e-17)
(0.445185 0.0328851 8.8006e-17)
(0.446133 0.0347517 8.80652e-17)
(0.445658 0.0363523 8.78026e-17)
(0.446732 0.0381373 8.77327e-17)
(0.447011 0.0398403 8.82926e-17)
(0.448513 0.0412918 8.77826e-17)
(0.448682 0.0428428 8.80541e-17)
(0.450177 0.0445461 8.77956e-17)
(0.450909 0.0463567 8.7802e-17)
(0.453346 0.0483009 8.68221e-17)
(0.455229 0.0498265 8.7012e-17)
(0.457527 0.0514969 8.63808e-17)
(0.459879 0.0531022 8.60774e-17)
(0.462341 0.0546116 8.57388e-17)
(0.464693 0.0562883 8.49837e-17)
(0.467539 0.0582085 8.42647e-17)
(0.471535 0.060373 8.34128e-17)
(0.476142 0.0621109 8.04816e-17)
(0.480634 0.063834 8.14907e-17)
(0.485584 0.0655492 7.93878e-17)
(0.490845 0.0672788 7.96372e-17)
(0.49689 0.0690211 7.71071e-17)
(0.503051 0.0704842 7.59286e-17)
(0.509382 0.0720535 7.45622e-17)
(0.516089 0.0735405 7.24692e-17)
(0.52355 0.0751682 6.85219e-17)
(0.531357 0.0764032 6.86267e-17)
(0.539134 0.0776451 6.58279e-17)
(0.546897 0.0794995 5.96188e-17)
(0.561742 0.0830101 5.84971e-17)
(0.57784 0.0824895 5.61594e-17)
(0.583111 0.0791649 5.44772e-17)
(0.586523 0.0796185 5.51614e-17)
(0.597915 0.0822812 5.14792e-17)
(0.610855 0.0826365 5.29298e-17)
(0.623948 0.0825811 4.87181e-17)
(0.636908 0.0817774 5.29228e-17)
(0.649781 0.0807526 4.79415e-17)
(0.662379 0.0792675 5.29078e-17)
(0.677569 0.0784072 4.94726e-17)
(0.691763 0.0754568 5.45589e-17)
(0.705661 0.0724299 5.21183e-17)
(0.718292 0.0684071 5.57531e-17)
(0.732993 0.0649676 5.47393e-17)
(0.744676 0.0590837 5.68563e-17)
(0.75658 0.0536893 5.63662e-17)
(0.76572 0.0467474 5.89807e-17)
(0.776499 0.0411081 5.73199e-17)
(0.781413 0.031769 6.02612e-17)
(0.788681 0.0253947 5.98485e-17)
(0.790793 0.0147622 6.24584e-17)
(0.788793 0.00911439 6.27792e-17)
(0.792238 -6.15797e-05 6.53216e-17)
(0.784834 -0.00663949 6.56236e-17)
(0.786543 -0.0118304 6.79e-17)
(0.782139 -0.0205976 6.78742e-17)
(0.778112 -0.0253117 6.94179e-17)
(0.773722 -0.0316835 6.86404e-17)
(0.76814 -0.0361097 6.95724e-17)
(0.764897 -0.0404516 6.84298e-17)
(0.760968 -0.0451497 6.9444e-17)
(0.756224 -0.0496045 6.90278e-17)
(0.751062 -0.0531814 7.0402e-17)
(0.746597 -0.0564515 6.99106e-17)
(0.743032 -0.0596713 7.17738e-17)
(0.739714 -0.0628404 7.1201e-17)
(0.736342 -0.0663895 7.28836e-17)
(0.73322 -0.0702709 7.27221e-17)
(0.727756 -0.0734778 7.37995e-17)
(0.724174 -0.0765751 7.28887e-17)
(0.720264 -0.0797552 7.3195e-17)
(0.716597 -0.0829096 7.1381e-17)
(0.713255 -0.0860918 7.10916e-17)
(0.709731 -0.0898636 6.85798e-17)
(0.70474 -0.0936384 6.85804e-17)
(0.699612 -0.0965158 6.56918e-17)
(0.694263 -0.10047 6.56687e-17)
(0.689138 -0.104072 6.29303e-17)
(0.682732 -0.108359 6.28869e-17)
(0.677022 -0.111369 6.07668e-17)
(0.670438 -0.115239 6.06672e-17)
(0.664309 -0.118995 6.0748e-17)
(0.654924 -0.123273 6.10731e-17)
(0.646082 -0.125882 6.09752e-17)
(0.637366 -0.128951 6.25496e-17)
(0.628942 -0.131987 6.36186e-17)
(0.618175 -0.136128 6.51852e-17)
(0.606994 -0.140031 6.58533e-17)
(0.594899 -0.143015 6.75309e-17)
(0.583121 -0.144071 6.88671e-17)
(0.56989 -0.147365 7.10521e-17)
(0.552563 -0.151551 7.22505e-17)
(0.532581 -0.156661 7.35784e-17)
(0.514816 -0.158613 7.24041e-17)
(0.498221 -0.15857 7.51529e-17)
(0.477165 -0.156692 7.30119e-17)
(0.449694 -0.156352 7.77555e-17)
(0.41881 -0.156833 7.61745e-17)
(0.391232 -0.156632 7.82936e-17)
(0.361822 -0.150366 7.5951e-17)
(0.323208 -0.144171 7.89584e-17)
(0.283332 -0.133387 7.90185e-17)
(0.240714 -0.116863 7.99431e-17)
(0.188903 -0.0907132 8.04826e-17)
(0.144607 -0.047523 8.36371e-17)
(0.0756375 0.0047457 7.8683e-17)
(0.0358788 0.0963501 8.34426e-17)
(-0.0094848 0.219117 7.54025e-17)
(0.00297152 0.368804 7.21527e-17)
(0.0243639 0.519903 7.32406e-17)
(0.148074 0.602498 7.52445e-17)
(0.302937 0.76695 7.09893e-17)
(0.515294 0.832895 7.32679e-17)
(0.724546 0.874929 8.05692e-17)
(0.875115 0.796827 8.24303e-17)
(0.898157 0.730022 7.43303e-17)
(0.984728 0.732803 7.16294e-17)
(1.08523 0.719332 7.2688e-17)
(1.17519 0.697081 7.33444e-17)
(1.24045 0.639446 7.67381e-17)
(1.27266 0.567043 7.95065e-17)
(1.30941 0.551198 7.43608e-17)
(1.34947 0.544268 6.86337e-17)
(1.36602 0.503094 7.05107e-17)
(1.36292 0.465882 7.43969e-17)
(1.37422 0.44013 7.25354e-17)
(1.36756 0.417019 7.12274e-17)
(1.37157 0.403012 7.06524e-17)
(1.36221 0.381178 7.07718e-17)
(1.36062 0.362371 7.00278e-17)
(1.35443 0.345731 6.93534e-17)
(1.34976 0.33182 6.79685e-17)
(1.33812 0.315855 6.79092e-17)
(1.33273 0.302229 6.68841e-17)
(1.31772 0.287832 6.56116e-17)
(1.31207 0.275947 6.53108e-17)
(1.29687 0.261684 6.59159e-17)
(1.29509 0.251476 6.52808e-17)
(1.28193 0.23883 6.40085e-17)
(1.28092 0.228935 6.27406e-17)
(1.26832 0.217845 6.13599e-17)
(1.26564 0.209282 6.05863e-17)
(1.25248 0.199317 5.96408e-17)
(1.2492 0.190703 5.87919e-17)
(1.23649 0.181128 5.75434e-17)
(1.2349 0.172698 5.61507e-17)
(1.23014 0.16335 5.49696e-17)
(1.22888 0.154253 5.35459e-17)
(1.21578 0.146232 5.23935e-17)
(1.21292 0.139579 5.14014e-17)
(1.19902 0.133232 5.03319e-17)
(1.19495 0.127562 4.84334e-17)
(1.18245 0.121442 4.73921e-17)
(1.17956 0.116322 4.59416e-17)
(1.16715 0.110312 4.45931e-17)
(1.16333 0.1058 4.41028e-17)
(1.15466 0.100167 4.31397e-17)
(1.16152 0.0926653 4.33315e-17)
(1.15243 0.0857998 4.27922e-17)
(1.15868 0.0789985 4.42975e-17)
(1.15193 0.0714535 4.41944e-17)
(1.1508 0.067194 4.67776e-17)
(1.1431 0.0622278 4.79835e-17)
(1.14095 0.0574041 5.0861e-17)
(1.13298 0.0521687 5.26072e-17)
(1.13039 0.0464697 5.58125e-17)
(1.12651 0.0432311 5.65227e-17)
(1.12366 0.0369117 5.91855e-17)
(1.12324 0.032084 5.96252e-17)
(1.1177 0.0255665 6.06361e-17)
(1.12384 0.0216647 6.07669e-17)
(1.1161 0.015312 6.09224e-17)
(1.12074 0.0117016 6.08705e-17)
(1.11204 0.00232366 6.0328e-17)
(1.11517 0.00254769 6.04404e-17)
(1.0372 0.00576275 5.92437e-17)
(0.852 0.0140006 5.808e-17)
(0.52466 0.0293901 5.74699e-17)
(0.222887 0.0149104 5.63619e-17)
(0.193214 -0.00539982 5.61959e-17)
(0.168275 -0.00674307 5.57372e-17)
(0.181461 -0.00870739 5.60584e-17)
(0.176298 -0.00917321 5.71811e-17)
(0.187606 -0.0110113 5.96266e-17)
(0.186275 -0.0117368 6.20858e-17)
(0.192646 -0.0130671 6.63041e-17)
(0.190753 -0.0136319 6.97068e-17)
(0.19185 -0.0144379 7.3869e-17)
(0.187766 -0.0147787 7.71175e-17)
(0.184678 -0.015239 8.10319e-17)
(0.177743 -0.0152394 8.64107e-17)
(0.171199 -0.0151667 9.16037e-17)
(0.162975 -0.015021 9.48187e-17)
(0.1538 -0.0148384 1.00098e-16)
(0.14033 -0.0140991 1.04063e-16)
(0.12855 -0.0128518 1.07195e-16)
(0.121564 -0.0121055 1.10709e-16)
(0.113856 -0.0117602 1.14457e-16)
(0.102108 -0.010973 1.18067e-16)
(0.0897012 -0.00962929 1.19743e-16)
(0.0812865 -0.008678 1.22528e-16)
(0.0737645 -0.00787708 1.18536e-16)
(0.0649375 -0.00695591 1.20103e-16)
(0.0548745 -0.00583693 1.20363e-16)
(0.046158 -0.00482295 1.24704e-16)
(0.0377552 -0.00378255 1.23499e-16)
(0.0300992 -0.00283151 1.19699e-16)
(0.0224362 -0.00185509 1.20558e-16)
(0.0155532 -0.000887103 1.17391e-16)
(0.00845267 0.000101392 1.12795e-16)
(0.00227517 0.000981169 1.10039e-16)
(-0.00411223 0.00188003 1.09807e-16)
(-0.00928034 0.00264736 1.05484e-16)
(-0.0149526 0.00350225 1.0606e-16)
(-0.0193455 0.00421159 1.0507e-16)
(-0.0245515 0.00503465 1.0411e-16)
(-0.0282807 0.00567055 1.02268e-16)
(-0.0330642 0.00645695 1.01507e-16)
(-0.0362061 0.00702408 1.03388e-16)
(-0.040638 0.00777324 9.92837e-17)
(-0.0432113 0.00825695 9.78596e-17)
(-0.0473323 0.00897455 9.69495e-17)
(-0.0494062 0.00938722 9.58802e-17)
(-0.0532128 0.0100733 9.6239e-17)
(-0.0548434 0.0104035 9.71587e-17)
(-0.0583271 0.0110171 9.72062e-17)
(-0.0595308 0.011254 9.85023e-17)
(-0.0626795 0.0118457 9.74145e-17)
(-0.0634958 0.0120871 9.85662e-17)
(-0.0663161 0.0126965 9.87037e-17)
(-0.0667746 0.0128313 9.93498e-17)
(-0.0692536 0.0132523 1.00351e-16)
(-0.0693577 0.0132209 9.95051e-17)
(-0.0714214 0.0135585 9.96865e-17)
(-0.0711545 0.0134795 1.00931e-16)
(-0.072761 0.013772 1.01722e-16)
(-0.0721388 0.0136068 1.01742e-16)
(-0.0732843 0.0137685 1.02717e-16)
(-0.072316 0.0134493 1.02554e-16)
(-0.0729926 0.013427 1.03307e-16)
(-0.0716887 0.0130083 1.03309e-16)
(-0.0718127 0.0129072 1.04014e-16)
(-0.0701363 0.0124293 1.04431e-16)
(-0.0696428 0.0122023 1.05629e-16)
(-0.0675345 0.0115405 1.05164e-16)
(-0.0664123 0.0109916 1.06517e-16)
(-0.0638011 0.0100525 1.06534e-16)
(-0.0619744 0.00917354 1.07592e-16)
(-0.0587294 0.00791665 1.07505e-16)
(-0.0559048 0.00675676 1.08186e-16)
(-0.0518934 0.00506164 1.08928e-16)
(-0.047859 0.00347504 1.0914e-16)
(-0.0431589 0.00133935 1.0942e-16)
(-0.0374751 -0.00113271 1.09567e-16)
(-0.0311225 -0.00319444 1.10398e-16)
(-0.0245038 -0.00637074 1.10596e-16)
(-0.0167973 -0.00978099 1.10864e-16)
(-0.0084325 -0.0137674 1.10859e-16)
(0.00380876 -0.0191836 1.11125e-16)
(0.0110047 -0.0360131 1.1136e-16)
(0.0204282 -0.0441737 1.11231e-16)
(0.0131965 -0.0599591 1.10441e-16)
(0.0337472 -0.042736 1.0891e-16)
(0.085949 -0.0313724 1.05511e-16)
(0.158039 -0.00569694 1.02331e-16)
(0.255102 0.0126115 9.6043e-17)
(0.362483 0.0273388 9.30195e-17)
(0.474587 0.0347968 9.10835e-17)
(0.566518 0.0372663 9.35518e-17)
(0.636812 0.0374656 9.72601e-17)
(0.680456 0.0365817 1.04127e-16)
(0.730729 0.0448955 1.14911e-16)
(0.773716 0.0459274 1.20604e-16)
(0.792061 0.052262 1.38373e-16)
(0.793557 0.0465509 1.47437e-16)
(0.792261 0.0494715 1.57303e-16)
(0.796657 0.0377106 1.6604e-16)
(0.793626 0.0501268 1.3393e-16)
(0.808734 0.0321774 1.6164e-16)
(0.80496 0.0530843 8.20977e-17)
(0.821595 0.0320955 1.67579e-16)
(0.817745 0.0578571 2.96572e-17)
(0.828147 0.0330029 2.312e-17)
(0.826425 0.0617999 -3.4325e-17)
(0.826665 0.0332715 -1.11508e-16)
(0.828874 0.0653381 -5.13984e-18)
(0.826988 0.0362595 -1.86882e-16)
(0.834892 0.0648797 -1.59029e-19)
(0.841977 0.0397074 -4.11115e-17)
(0.848332 0.062 1.03179e-16)
(0.858964 0.034472 -1.23844e-16)
(0.853851 0.0753112 -3.12774e-17)
(0.857807 0.0537393 -2.84953e-16)
(0.886411 0.0803873 -2.95689e-17)
(0.886282 0.0802607 -2.54011e-17)
(0.857862 0.0537786 -2.68453e-16)
(0.853884 0.075387 -3.091e-17)
(0.859092 0.0344182 6.93677e-17)
(0.848227 0.0620489 1.11855e-16)
(0.840882 0.0398061 -2.39595e-17)
(0.834813 0.064894 -8.54912e-17)
(0.827095 0.036344 -9.43513e-17)
(0.828999 0.0653573 -3.20287e-17)
(0.826555 0.0332835 -9.26359e-17)
(0.82647 0.061797 -7.26295e-18)
(0.828036 0.0331282 -1.36351e-17)
(0.817544 0.0579845 4.23649e-17)
(0.822388 0.031901 1.37334e-16)
(0.805748 0.0528664 7.3946e-17)
(0.809063 0.0325448 1.54937e-16)
(0.792928 0.050342 1.20433e-16)
(0.797331 0.0378338 1.70157e-16)
(0.793274 0.0495072 1.52472e-16)
(0.796385 0.0466964 1.51356e-16)
(0.798925 0.0514008 1.43571e-16)
(0.79789 0.0455347 1.33585e-16)
(0.786185 0.0449291 1.24541e-16)
(0.754372 0.0351718 1.18644e-16)
(0.731885 0.0311231 1.12029e-16)
(0.719042 0.0251545 1.09829e-16)
(0.697081 0.0220771 1.02792e-16)
(0.692476 0.0164325 1.03594e-16)
(0.686764 0.0114306 1.0013e-16)
(0.676027 0.00694495 1.00365e-16)
(0.666979 0.00147928 9.72619e-17)
(0.658624 -0.0044173 9.81229e-17)
(0.660162 -0.0114285 9.59151e-17)
(0.647398 -0.0155014 9.7108e-17)
(0.638717 -0.0176706 9.56184e-17)
(0.635189 -0.019751 9.64586e-17)
(0.622813 -0.0191086 9.55142e-17)
(0.620958 -0.02082 9.60486e-17)
(0.609182 -0.0185507 9.53502e-17)
(0.607225 -0.0200988 9.57243e-17)
(0.596834 -0.0170178 9.52158e-17)
(0.594949 -0.0181607 9.54732e-17)
(0.586062 -0.0153658 9.51052e-17)
(0.584031 -0.0160176 9.52516e-17)
(0.575665 -0.0136753 9.49827e-17)
(0.573146 -0.0137366 9.50706e-17)
(0.56522 -0.0115524 9.4847e-17)
(0.562817 -0.0109177 9.48835e-17)
(0.555711 -0.00912106 9.47129e-17)
(0.553003 -0.00824377 9.47204e-17)
(0.546423 -0.00632592 9.45803e-17)
(0.544002 -0.00541158 9.45756e-17)
(0.537433 -0.00377099 9.44331e-17)
(0.53417 -0.00223969 9.44104e-17)
(0.528539 0.000594488 9.43132e-17)
(0.528306 0.00206724 9.43454e-17)
(0.523447 0.00298776 9.4257e-17)
(0.520654 0.00356015 9.42594e-17)
(0.514299 0.00603263 9.41532e-17)
(0.512178 0.00846819 9.41242e-17)
(0.508162 0.00967112 9.40516e-17)
(0.505744 0.0102278 9.40915e-17)
(0.500892 0.012869 9.399e-17)
(0.500115 0.0155116 9.40141e-17)
(0.496474 0.0173672 9.39709e-17)
(0.495212 0.0193738 9.39751e-17)
(0.492704 0.0217125 9.40349e-17)
(0.492652 0.0232284 9.39691e-17)
(0.490105 0.0246014 9.39375e-17)
(0.489812 0.0268526 9.3993e-17)
(0.48811 0.0287849 9.39746e-17)
(0.4881 0.0304836 9.39467e-17)
(0.486822 0.0324474 9.39231e-17)
(0.487564 0.0343443 9.39316e-17)
(0.486452 0.0359444 9.42337e-17)
(0.487494 0.038023 9.40283e-17)
(0.487367 0.0397626 9.4065e-17)
(0.488604 0.0416738 9.40132e-17)
(0.489211 0.0435092 9.37535e-17)
(0.490931 0.0451219 9.36321e-17)
(0.491527 0.0468741 9.35563e-17)
(0.493319 0.0487327 9.32911e-17)
(0.494473 0.0507088 9.31949e-17)
(0.497208 0.052773 9.23093e-17)
(0.499489 0.0544728 9.22681e-17)
(0.50221 0.0563052 9.1585e-17)
(0.505001 0.0580801 9.19047e-17)
(0.507966 0.0597722 9.08977e-17)
(0.510873 0.0616448 8.99407e-17)
(0.5143 0.063734 8.9179e-17)
(0.51881 0.0660615 8.77509e-17)
(0.52396 0.0679661 8.80335e-17)
(0.529068 0.0698785 8.6326e-17)
(0.534644 0.0717487 8.45574e-17)
(0.540574 0.0736348 8.26698e-17)
(0.54727 0.0755258 8.14436e-17)
(0.554147 0.0771451 7.86837e-17)
(0.561223 0.0788885 7.83741e-17)
(0.568697 0.0805266 7.40221e-17)
(0.576934 0.0822995 7.14455e-17)
(0.585528 0.0836598 6.90002e-17)
(0.594173 0.0850601 6.63615e-17)
(0.602843 0.0869229 6.54939e-17)
(0.618022 0.090336 6.33276e-17)
(0.634217 0.0898321 6.10101e-17)
(0.640637 0.0866917 6.02209e-17)
(0.645417 0.0870933 5.79632e-17)
(0.657425 0.0898181 5.74269e-17)
(0.670866 0.0900105 5.49551e-17)
(0.684553 0.0899045 5.3954e-17)
(0.698005 0.0889119 5.59796e-17)
(0.711393 0.0877227 5.39252e-17)
(0.72443 0.0859815 5.67364e-17)
(0.73983 0.0847847 5.62542e-17)
(0.754005 0.0814879 5.79379e-17)
(0.767972 0.0780396 5.86799e-17)
(0.780495 0.0734611 6.08612e-17)
(0.794909 0.0697378 6.00475e-17)
(0.8061 0.0630357 6.32459e-17)
(0.817567 0.0574119 6.1531e-17)
(0.826107 0.0493859 6.44195e-17)
(0.836122 0.0435399 6.39663e-17)
(0.840206 0.0332578 6.6758e-17)
(0.846838 0.0260407 6.69608e-17)
(0.848004 0.0145198 6.9662e-17)
(0.845755 0.00870419 7.02021e-17)
(0.848086 -0.000814302 7.2726e-17)
(0.840599 -0.00874962 7.30069e-17)
(0.84116 -0.0132933 7.50464e-17)
(0.836139 -0.0225823 7.49436e-17)
(0.831704 -0.0270149 7.64147e-17)
(0.826438 -0.0338741 7.51251e-17)
(0.820592 -0.0374277 7.6013e-17)
(0.816445 -0.0430072 7.52767e-17)
(0.811842 -0.047336 7.62895e-17)
(0.806354 -0.0528091 7.62187e-17)
(0.800575 -0.0559688 7.76525e-17)
(0.79526 -0.0602036 7.74491e-17)
(0.790779 -0.0633409 7.901e-17)
(0.786439 -0.066797 7.92949e-17)
(0.782009 -0.0704511 8.04846e-17)
(0.777959 -0.074321 8.0063e-17)