/*--------------------------------*- C++ -*----------------------------------*\
| =========                 |                                                 |
| \\      /  F ield         | OpenFOAM: The Open Source CFD Toolbox           |
|  \\    /   O peration     | Version:  v2006                                 |
|   \\  /    A nd           | Website:  www.openfoam.com                      |
|    \\/     M anipulation  |                                                 |
\*---------------------------------------------------------------------------*/
FoamFile
{
    version     2.0;
    format      ascii;
    class       volScalarField;
    location    "100";
    object      alphat;
}
// * * * * * * * * * * * * * * * * * * * * * * * * * * * * * * * * * * * * * //

dimensions      [1 -1 -1 0 0 0 0];


internalField   nonuniform List<scalar> 
93840
(
2.85941e-08
2.89613e-08
2.87512e-08
2.90618e-08
2.89204e-08
2.94611e-08
2.97212e-08
2.94731e-08
2.89041e-08
2.91336e-08
2.99458e-08
3.08795e-08
3.14173e-08
3.1077e-08
3.23368e-08
3.49648e-08
4.53746e-08
5.45304e-08
3.22262e-08
3.54265e-09
1.06266e-07
1.83985e-06
6.2561e-06
1.38806e-05
1.79963e-05
1.66806e-05
1.50604e-05
1.5621e-05
1.49889e-05
1.48064e-05
1.38754e-05
1.32432e-05
1.3253e-05
1.27895e-05
1.28112e-05
1.27273e-05
1.25063e-05
1.25805e-05
1.22828e-05
1.23909e-05
1.21282e-05
1.2213e-05
1.19662e-05
1.20406e-05
1.1825e-05
1.18534e-05
1.16804e-05
1.16823e-05
1.15362e-05
1.15108e-05
1.13923e-05
1.13608e-05
1.12456e-05
1.11915e-05
1.11288e-05
1.11236e-05
1.10312e-05
1.09696e-05
1.08699e-05
1.08404e-05
1.07832e-05
1.07429e-05
1.068e-05
1.06901e-05
1.06587e-05
1.06575e-05
1.06578e-05
1.06752e-05
1.06636e-05
1.06767e-05
1.06951e-05
1.07102e-05
1.07409e-05
1.07791e-05
1.08175e-05
1.0862e-05
1.09142e-05
1.09636e-05
1.10275e-05
1.10797e-05
1.11361e-05
1.11892e-05
1.12368e-05
1.13096e-05
1.13861e-05
1.14444e-05
1.15125e-05
1.15796e-05
1.16427e-05
1.17049e-05
1.18048e-05
1.18959e-05
1.19922e-05
1.20941e-05
1.21938e-05
1.23147e-05
1.24283e-05
1.25408e-05
1.26621e-05
1.27952e-05
1.29264e-05
1.30529e-05
1.31864e-05
1.34501e-05
1.3705e-05
1.37522e-05
1.37945e-05
1.39795e-05
1.41751e-05
1.4367e-05
1.45513e-05
1.47384e-05
1.49206e-05
1.51442e-05
1.53461e-05
1.55459e-05
1.57312e-05
1.59407e-05
1.61207e-05
1.63082e-05
1.64757e-05
1.66497e-05
1.67694e-05
1.69003e-05
1.69588e-05
1.70669e-05
1.71436e-05
1.71329e-05
1.7228e-05
1.72634e-05
1.72812e-05
1.73501e-05
1.73005e-05
1.73903e-05
1.73752e-05
1.73969e-05
1.74116e-05
1.74336e-05
1.74544e-05
1.75205e-05
1.75455e-05
1.75734e-05
1.75674e-05
1.76078e-05
1.76164e-05
1.76558e-05
1.76841e-05
1.77135e-05
1.7711e-05
1.77243e-05
1.77156e-05
1.77159e-05
1.76909e-05
1.76747e-05
1.76286e-05
1.75722e-05
1.75126e-05
1.74073e-05
1.73165e-05
1.71987e-05
1.71159e-05
1.69988e-05
1.68355e-05
1.66234e-05
1.64071e-05
1.61553e-05
1.58369e-05
1.53501e-05
1.42751e-05
1.18076e-05
7.4305e-06
5.37343e-06
1.11327e-05
1.05836e-05
1.66101e-06
3.58353e-08
3.11905e-06
3.45265e-06
1.83299e-08
6.56634e-08
1.18757e-07
1.87546e-08
4.93354e-07
2.55399e-07
1.43573e-08
5.40145e-07
1.33306e-06
5.4003e-08
9.53401e-14
7.98593e-06
1.28289e-05
2.98837e-06
3.52472e-06
1.15945e-05
1.64101e-05
1.78029e-05
1.84251e-05
1.85122e-05
1.85479e-05
1.85575e-05
1.8602e-05
1.8562e-05
1.84401e-05
1.8354e-05
1.82256e-05
1.81468e-05
1.80151e-05
1.79351e-05
1.77957e-05
1.77136e-05
1.75818e-05
1.75158e-05
1.73725e-05
1.72928e-05
1.71518e-05
1.70692e-05
1.69155e-05
1.68432e-05
1.66791e-05
1.65817e-05
1.64225e-05
1.63357e-05
1.61953e-05
1.61393e-05
1.59688e-05
1.59197e-05
1.57667e-05
1.57325e-05
1.55797e-05
1.55403e-05
1.5381e-05
1.53444e-05
1.51899e-05
1.5164e-05
1.49776e-05
1.49925e-05
1.48265e-05
1.48218e-05
1.46643e-05
1.46746e-05
1.45049e-05
1.45376e-05
1.43628e-05
1.43994e-05
1.42465e-05
1.42728e-05
1.41028e-05
1.41403e-05
1.39582e-05
1.40659e-05
1.39189e-05
1.4266e-05
1.40613e-05
1.24467e-05
9.87745e-06
9.89421e-06
9.9135e-06
9.91579e-06
1.01435e-05
1.03129e-05
1.03716e-05
1.03728e-05
1.03589e-05
1.03229e-05
1.02751e-05
1.02126e-05
1.01539e-05
1.00491e-05
9.8273e-06
9.62808e-06
9.58289e-06
9.50239e-06
9.25371e-06
8.95844e-06
8.79958e-06
8.67341e-06
8.47313e-06
8.20968e-06
7.97125e-06
7.73579e-06
7.49556e-06
7.24318e-06
6.98591e-06
6.72244e-06
6.45406e-06
6.18536e-06
5.91697e-06
5.64325e-06
5.34964e-06
5.02316e-06
4.66348e-06
4.24243e-06
3.77148e-06
3.24055e-06
2.65711e-06
2.17561e-06
1.79406e-06
1.3824e-06
9.15162e-07
1.94351e-07
2.27936e-09
5.78221e-09
5.05808e-09
3.32071e-09
3.22923e-09
3.53806e-09
3.93471e-09
4.40362e-09
7.23988e-09
8.64597e-09
1.15612e-08
1.3527e-08
1.47231e-08
1.22436e-08
9.2411e-09
7.1293e-09
6.07595e-09
6.07129e-09
5.90907e-09
5.31277e-09
4.47071e-09
5.05002e-09
4.00419e-09
3.71483e-09
3.03367e-09
2.5419e-09
2.64101e-09
3.19688e-09
4.05511e-09
1.64547e-08
8.85363e-08
4.79546e-07
9.90494e-07
1.70245e-06
2.73993e-06
2.88668e-06
8.7514e-06
1.34787e-05
1.65395e-05
1.81614e-05
1.91966e-05
1.73433e-05
1.49045e-05
1.70513e-05
1.55338e-05
8.14978e-06
2.53273e-06
5.45676e-07
1.02706e-07
2.28593e-08
1.39291e-08
2.00936e-08
2.57373e-08
2.99084e-08
3.04746e-08
3.14544e-08
3.07132e-08
2.99482e-08
2.91645e-08
2.88475e-08
2.94939e-08
2.99454e-08
2.95143e-08
2.88328e-08
2.9024e-08
2.87322e-08
2.8966e-08
2.85332e-08
2.86027e-08
2.89637e-08
2.86734e-08
2.8979e-08
2.88461e-08
2.95065e-08
2.97503e-08
2.95701e-08
2.88718e-08
2.9183e-08
2.99128e-08
3.08677e-08
3.15041e-08
3.07982e-08
3.17617e-08
3.40466e-08
3.87025e-08
4.072e-08
3.92533e-08
3.74562e-08
1.78089e-08
5.90951e-07
4.16844e-06
1.0884e-05
1.67922e-05
1.80312e-05
1.77227e-05
1.64652e-05
1.53777e-05
1.4691e-05
1.39899e-05
1.35642e-05
1.33934e-05
1.32761e-05
1.35565e-05
1.32305e-05
1.36626e-05
1.32074e-05
1.37196e-05
1.32228e-05
1.37659e-05
1.32536e-05
1.37773e-05
1.331e-05
1.38036e-05
1.33563e-05
1.38459e-05
1.33964e-05
1.38738e-05
1.34487e-05
1.38803e-05
1.35082e-05
1.38753e-05
1.35362e-05
1.38165e-05
1.35753e-05
1.38126e-05
1.3624e-05
1.38307e-05
1.37063e-05
1.38938e-05
1.38122e-05
1.40068e-05
1.39906e-05
1.42442e-05
1.42792e-05
1.45344e-05
1.4592e-05
1.47953e-05
1.48524e-05
1.50545e-05
1.51709e-05
1.53789e-05
1.55425e-05
1.57886e-05
1.59729e-05
1.62164e-05
1.64258e-05
1.66295e-05
1.67963e-05
1.70517e-05
1.71954e-05
1.73185e-05
1.74636e-05
1.76544e-05
1.77511e-05
1.78541e-05
1.80154e-05
1.81029e-05
1.81721e-05
1.82909e-05
1.83408e-05
1.84206e-05
1.84821e-05
1.85137e-05
1.85995e-05
1.86492e-05
1.86622e-05
1.86941e-05
1.87281e-05
1.87264e-05
1.87339e-05
1.86987e-05
1.86483e-05
1.86639e-05
1.86743e-05
1.86485e-05
1.85702e-05
1.84988e-05
1.84266e-05
1.83232e-05
1.82371e-05
1.81176e-05
1.79815e-05
1.78424e-05
1.76987e-05
1.75398e-05
1.73678e-05
1.71997e-05
1.70384e-05
1.68855e-05
1.67235e-05
1.65857e-05
1.64444e-05
1.63536e-05
1.63103e-05
1.61161e-05
1.61501e-05
1.59916e-05
1.59449e-05
1.58811e-05
1.58286e-05
1.57264e-05
1.56733e-05
1.55498e-05
1.54776e-05
1.54104e-05
1.53148e-05
1.52263e-05
1.5139e-05
1.50139e-05
1.49036e-05
1.47928e-05
1.46818e-05
1.45384e-05
1.44047e-05
1.42468e-05
1.40889e-05
1.39104e-05
1.37489e-05
1.35467e-05
1.33367e-05
1.30783e-05
1.28218e-05
1.25019e-05
1.21443e-05
1.17105e-05
1.11899e-05
1.06163e-05
1.00293e-05
9.44218e-06
8.77273e-06
7.79903e-06
6.41079e-06
5.06944e-06
4.54839e-06
4.69152e-06
4.37238e-06
2.8509e-06
6.57935e-07
1.46217e-06
2.19158e-08
5.41716e-07
8.39453e-08
1.33147e-09
1.26736e-09
4.05834e-09
2.60619e-09
4.97364e-09
7.97432e-08
4.01201e-08
2.16815e-07
3.06628e-08
3.71411e-08
5.09264e-08
2.59935e-08
1.45145e-07
7.83747e-08
5.01971e-16
4.98041e-07
2.32329e-07
1.151e-07
2.1383e-15
9.40885e-07
3.70544e-06
4.57439e-06
3.92004e-06
3.98325e-06
5.6422e-06
7.43066e-06
8.57179e-06
9.38241e-06
1.02357e-05
1.10906e-05
1.16785e-05
1.21311e-05
1.25228e-05
1.29459e-05
1.33001e-05
1.36263e-05
1.38457e-05
1.40453e-05
1.41588e-05
1.42912e-05
1.4372e-05
1.4485e-05
1.45453e-05
1.46359e-05
1.46839e-05
1.4723e-05
1.47201e-05
1.47303e-05
1.47714e-05
1.4864e-05
1.49031e-05
1.50127e-05
1.50492e-05
1.51428e-05
1.51888e-05
1.52676e-05
1.52541e-05
1.52266e-05
1.51794e-05
1.52081e-05
1.50983e-05
1.52262e-05
1.52343e-05
1.52793e-05
1.53381e-05
1.53549e-05
1.53662e-05
1.54709e-05
1.54085e-05
1.54365e-05
1.55232e-05
1.54454e-05
1.55879e-05
1.52526e-05
1.57055e-05
1.5507e-05
1.54514e-05
1.63475e-05
1.70884e-05
1.87016e-05
2.0655e-05
2.24933e-05
2.28924e-05
2.27626e-05
2.31598e-05
2.29802e-05
2.24063e-05
2.18202e-05
2.13284e-05
2.09323e-05
2.06402e-05
2.04232e-05
2.02498e-05
2.00651e-05
1.99235e-05
1.98832e-05
1.97219e-05
1.94585e-05
1.91393e-05
1.89325e-05
1.87413e-05
1.85127e-05
1.82528e-05
1.8048e-05
1.78787e-05
1.76739e-05
1.7477e-05
1.72582e-05
1.70588e-05
1.68364e-05
1.66454e-05
1.64384e-05
1.62132e-05
1.59419e-05
1.55843e-05
1.50318e-05
1.43035e-05
1.31983e-05
1.18552e-05
1.00929e-05
8.07409e-06
6.86455e-06
6.36021e-06
5.87526e-06
5.74598e-06
5.08459e-06
3.7263e-06
2.50376e-06
1.40988e-06
7.79973e-07
5.76601e-07
6.41706e-07
5.8116e-07
6.14337e-07
8.17002e-07
8.76456e-07
1.00227e-06
1.12644e-06
1.02741e-06
7.37595e-07
3.95564e-07
2.68251e-07
2.46633e-07
3.76829e-07
4.45018e-07
4.71033e-07
4.84537e-07
6.2985e-07
5.56007e-07
5.39683e-07
4.81838e-07
3.95238e-07
3.96238e-07
3.98772e-07
4.85154e-07
1.14727e-06
2.48053e-06
4.14636e-06
5.98606e-06
8.10538e-06
1.1773e-05
1.61556e-05
1.86512e-05
2.1467e-05
2.47807e-05
2.87953e-05
2.85771e-05
2.6832e-05
2.13729e-05
1.6534e-05
1.59912e-05
1.02502e-05
3.52718e-06
5.52404e-07
1.06501e-07
5.21815e-08
3.49434e-08
3.26583e-08
3.20182e-08
3.14296e-08
3.06741e-08
3.13596e-08
3.07854e-08
2.99563e-08
2.91676e-08
2.88261e-08
2.95283e-08
2.98223e-08
2.95516e-08
2.88372e-08
2.91506e-08
2.87579e-08
2.89782e-08
2.85852e-08
2.86329e-08
2.89856e-08
2.87906e-08
2.90913e-08
2.88482e-08
2.96905e-08
2.98883e-08
2.96535e-08
2.87955e-08
2.92162e-08
3.00328e-08
3.08745e-08
3.13787e-08
3.0594e-08
3.03987e-08
2.79283e-08
2.18242e-08
1.58512e-08
2.38935e-08
8.35399e-08
1.45662e-07
2.66062e-07
2.45835e-06
7.83492e-06
1.41404e-05
1.68963e-05
1.85817e-05
1.93055e-05
1.85572e-05
1.83355e-05
1.78162e-05
1.76382e-05
1.73676e-05
1.73831e-05
1.74111e-05
1.73912e-05
1.75039e-05
1.74618e-05
1.76041e-05
1.75445e-05
1.77222e-05
1.76571e-05
1.78355e-05
1.77758e-05
1.79771e-05
1.79019e-05
1.81194e-05
1.80111e-05
1.82444e-05
1.80949e-05
1.83331e-05
1.81647e-05
1.8377e-05
1.81961e-05
1.83798e-05
1.82659e-05
1.84734e-05
1.84e-05
1.86192e-05
1.86221e-05
1.88411e-05
1.88974e-05
1.91958e-05
1.93899e-05
1.9803e-05
2.00191e-05
2.04392e-05
2.06286e-05
2.09704e-05
2.11639e-05
2.15628e-05
2.1866e-05
2.22893e-05
2.26864e-05
2.31864e-05
2.36081e-05
2.41122e-05
2.45507e-05
2.4939e-05
2.53014e-05
2.58082e-05
2.60338e-05
2.62328e-05
2.65158e-05
2.6838e-05
2.69235e-05
2.7069e-05
2.7311e-05
2.73429e-05
2.73647e-05
2.74891e-05
2.74196e-05
2.74324e-05
2.73827e-05
2.72794e-05
2.72926e-05
2.71958e-05
2.70086e-05
2.68897e-05
2.67459e-05
2.65225e-05
2.63216e-05
2.60423e-05
2.57582e-05
2.56046e-05
2.53683e-05
2.50836e-05
2.47007e-05
2.43321e-05
2.39515e-05
2.35136e-05
2.31107e-05
2.26305e-05
2.21327e-05
2.16462e-05
2.11396e-05
2.06277e-05
2.01018e-05
1.96121e-05
1.91242e-05
1.8697e-05
1.8243e-05
1.78925e-05
1.75142e-05
1.72277e-05
1.6991e-05
1.6606e-05
1.65017e-05
1.61046e-05
1.59236e-05
1.56549e-05
1.54353e-05
1.51293e-05
1.48812e-05
1.45534e-05
1.42821e-05
1.3992e-05
1.36709e-05
1.33375e-05
1.30063e-05
1.26248e-05
1.22662e-05
1.18841e-05
1.149e-05
1.10379e-05
1.05853e-05
1.00657e-05
9.5288e-06
8.9244e-06
8.3371e-06
7.66586e-06
6.99022e-06
6.25176e-06
5.50925e-06
4.73378e-06
4.04981e-06
3.43722e-06
2.82122e-06
2.07577e-06
1.45129e-06
1.18595e-06
1.04282e-06
4.68437e-07
8.61921e-08
6.8209e-08
9.68634e-08
3.87202e-08
2.08933e-08
2.3288e-08
6.10818e-08
1.03427e-07
7.78771e-08
5.16012e-08
1.45232e-07
1.45156e-07
1.33377e-07
8.62568e-08
9.38981e-08
1.15746e-07
7.62046e-08
6.90253e-08
4.20287e-08
1.0949e-07
7.08437e-09
1.22155e-07
5.09575e-08
4.16553e-08
3.23829e-08
5.89186e-08
2.48023e-08
4.71464e-09
3.38761e-08
5.8612e-08
5.28497e-10
2.09371e-07
1.78468e-07
1.67701e-07
3.12805e-08
5.62961e-07
1.10724e-06
8.58938e-07
1.14755e-06
1.87768e-06
2.57142e-06
3.09506e-06
3.51828e-06
3.93051e-06
4.62726e-06
5.53399e-06
6.53489e-06
7.39691e-06
8.16222e-06
8.82278e-06
9.46463e-06
1.00242e-05
1.05836e-05
1.10864e-05
1.15719e-05
1.20083e-05
1.24291e-05
1.27748e-05
1.30753e-05
1.33889e-05
1.37295e-05
1.40058e-05
1.43814e-05
1.46676e-05
1.50047e-05
1.52867e-05
1.5581e-05
1.58062e-05
1.60282e-05
1.61188e-05
1.64246e-05
1.64138e-05
1.67727e-05
1.69508e-05
1.71022e-05
1.74479e-05
1.75752e-05
1.7731e-05
1.80762e-05
1.81137e-05
1.82575e-05
1.86193e-05
1.85608e-05
1.89288e-05
1.85226e-05
1.933e-05
1.93151e-05
1.89087e-05
2.04471e-05
2.17976e-05
2.33824e-05
2.71773e-05
3.08035e-05
3.25994e-05
3.29104e-05
3.41613e-05
3.45842e-05
3.42975e-05
3.38267e-05
3.33726e-05
3.30037e-05
3.27827e-05
3.2689e-05
3.26719e-05
3.26453e-05
3.26196e-05
3.27735e-05
3.27599e-05
3.25305e-05
3.20388e-05
3.16663e-05
3.14515e-05
3.12387e-05
3.09434e-05
3.07049e-05
3.05866e-05
3.04033e-05
3.02575e-05
3.00553e-05
2.9902e-05
2.97042e-05
2.95892e-05
2.944e-05
2.92372e-05
2.89121e-05
2.83259e-05
2.72156e-05
2.5564e-05
2.30926e-05
2.02108e-05
1.69555e-05
1.3432e-05
1.05056e-05
9.05784e-06
8.14598e-06
7.79569e-06
7.4926e-06
6.73191e-06
5.51192e-06
3.40574e-06
1.65354e-06
1.21371e-06
1.55911e-06
1.70046e-06
1.74107e-06
2.13665e-06
2.23208e-06
2.50508e-06
2.92483e-06
3.02117e-06
2.58918e-06
1.59454e-06
7.88039e-07
5.75657e-07
8.41998e-07
8.82042e-07
7.66822e-07
7.7333e-07
9.2978e-07
7.92722e-07
8.37277e-07
7.18898e-07
5.66144e-07
4.16387e-07
3.43449e-07
1.07071e-06
2.62483e-06
4.66081e-06
6.70169e-06
8.67066e-06
1.01884e-05
1.21919e-05
1.5128e-05
1.93531e-05
2.33777e-05
2.81471e-05
3.33888e-05
3.45141e-05
3.50097e-05
3.62035e-05
2.51777e-05
1.84373e-05
1.26491e-05
5.11167e-06
1.03656e-06
3.96471e-08
3.76113e-08
4.72235e-08
3.74272e-08
3.14903e-08
3.1192e-08
3.08733e-08
3.14402e-08
3.06779e-08
2.99427e-08
2.91896e-08
2.8751e-08
2.95745e-08
2.99909e-08
2.94519e-08
2.8839e-08
2.90971e-08
2.87453e-08
2.89681e-08
2.85947e-08
2.85228e-08
2.89035e-08
2.86837e-08
2.90479e-08
2.88041e-08
2.94173e-08
2.99453e-08
2.96414e-08
2.88789e-08
2.91776e-08
2.9909e-08
3.07713e-08
3.13828e-08
3.06388e-08
3.09131e-08
3.13671e-08
3.39468e-08
3.65059e-08
3.05866e-08
6.83762e-09
1.4097e-08
2.10569e-07
1.39849e-06
5.45931e-06
1.14382e-05
1.47614e-05
1.68234e-05
1.82484e-05
1.85281e-05
1.88797e-05
1.88079e-05
1.89084e-05
1.8894e-05
1.89744e-05
1.90257e-05
1.91084e-05
1.91813e-05
1.9269e-05
1.9365e-05
1.94137e-05
1.95829e-05
1.95836e-05
1.97618e-05
1.97833e-05
1.99549e-05
1.99664e-05
2.0143e-05
2.01429e-05
2.02868e-05
2.02598e-05
2.03935e-05
2.035e-05
2.04758e-05
2.04273e-05
2.05681e-05
2.05847e-05
2.07568e-05
2.08288e-05
2.10557e-05
2.12142e-05
2.14481e-05
2.16855e-05
2.2077e-05
2.24799e-05
2.29438e-05
2.33154e-05
2.37828e-05
2.40741e-05
2.44949e-05
2.485e-05
2.53846e-05
2.58527e-05
2.64214e-05
2.7013e-05
2.76778e-05
2.82796e-05
2.89415e-05
2.95212e-05
3.00187e-05
3.05324e-05
3.11661e-05
3.14048e-05
3.16591e-05
3.20448e-05
3.23971e-05
3.24401e-05
3.2615e-05
3.28804e-05
3.28212e-05
3.28107e-05
3.29032e-05
3.27008e-05
3.26406e-05
3.24769e-05
3.22538e-05
3.21831e-05
3.19215e-05
3.15618e-05
3.13131e-05
3.09976e-05
3.05835e-05
3.02124e-05
2.97472e-05
2.92661e-05
2.88888e-05
2.84071e-05
2.7947e-05
2.73295e-05
2.67172e-05
2.60814e-05
2.53786e-05
2.47246e-05
2.39689e-05
2.31999e-05
2.24533e-05
2.16766e-05
2.09149e-05
2.01402e-05
1.94266e-05
1.87116e-05
1.80981e-05
1.74337e-05
1.69258e-05
1.63573e-05
1.59475e-05
1.55109e-05
1.49839e-05
1.46914e-05
1.41485e-05
1.37988e-05
1.33372e-05
1.29522e-05
1.2454e-05
1.20278e-05
1.14974e-05
1.10414e-05
1.05265e-05
1.0002e-05
9.41138e-06
8.82282e-06
8.13562e-06
7.47016e-06
6.74841e-06
6.01156e-06
5.2463e-06
4.52825e-06
3.79981e-06
3.11668e-06
2.44649e-06
1.93069e-06
1.44968e-06
1.00682e-06
5.84594e-07
3.80215e-07
1.98212e-07
9.93713e-08
6.01867e-08
6.76064e-08
3.28013e-08
1.89223e-08
2.61523e-08
3.86085e-08
2.53978e-08
3.50601e-08
2.84538e-08
2.63352e-08
3.27441e-08
4.7121e-08
3.01326e-08
4.38361e-08
3.31409e-08
4.52378e-08
3.30761e-08
2.55591e-08
1.20296e-08
2.59245e-08
2.85476e-08
5.53691e-08
3.31248e-08
3.48126e-08
5.78891e-08
1.28673e-07
3.16731e-08
6.72834e-08
3.18485e-07
7.03951e-08
2.19136e-08
1.28367e-08
1.55334e-08
2.44635e-08
1.15149e-08
1.79235e-08
1.64786e-08
2.75066e-09
3.86902e-09
1.72758e-08
3.94709e-09
2.82018e-09
1.46731e-08
2.48029e-08
6.20759e-09
1.01575e-08
2.15846e-08
2.89336e-08
3.22129e-08
9.52935e-08
9.66659e-08
1.58546e-07
4.32717e-07
9.51246e-07
1.30753e-06
1.76011e-06
2.28139e-06
2.82495e-06
3.38578e-06
4.05474e-06
4.77365e-06
5.54736e-06
6.38013e-06
7.21899e-06
8.08142e-06
8.8139e-06
9.47713e-06
1.01198e-05
1.06619e-05
1.13111e-05
1.1861e-05
1.24355e-05
1.29547e-05
1.34461e-05
1.39077e-05
1.43938e-05
1.46848e-05
1.52614e-05
1.53995e-05
1.59536e-05
1.63516e-05
1.65978e-05
1.71675e-05
1.74255e-05
1.77275e-05
1.82794e-05
1.84168e-05
1.86894e-05
1.92507e-05
1.92992e-05
1.9793e-05
1.9515e-05
2.04119e-05
2.08018e-05
1.99669e-05
2.20639e-05
2.38712e-05
2.60446e-05
3.04307e-05
3.49059e-05
3.76082e-05
3.83323e-05
3.98001e-05
4.04476e-05
4.04521e-05
4.02663e-05
4.00286e-05
3.98233e-05
3.97597e-05
3.98454e-05
4.00158e-05
4.02105e-05
4.04073e-05
4.07612e-05
4.08447e-05
4.07026e-05
4.02378e-05
3.98075e-05
3.95266e-05
3.92949e-05
3.90194e-05
3.88052e-05
3.87547e-05
3.86162e-05
3.85353e-05
3.83827e-05
3.82913e-05
3.8144e-05
3.81096e-05
3.80603e-05
3.79261e-05
3.76548e-05
3.70199e-05
3.57388e-05
3.37147e-05
3.06524e-05
2.70344e-05
2.29509e-05
1.87377e-05
1.44886e-05
1.16528e-05
1.00432e-05
9.14465e-06
8.91896e-06
8.76442e-06
8.27644e-06
6.49561e-06
4.02277e-06
2.26225e-06
1.8584e-06
1.935e-06
1.91854e-06
2.58084e-06
2.82922e-06
3.17063e-06
3.90081e-06
4.4713e-06
4.44901e-06
3.38851e-06
1.81645e-06
8.14118e-07
1.08921e-06
1.2197e-06
9.41521e-07
8.26917e-07
1.02653e-06
7.87647e-07
8.49153e-07
8.08558e-07
6.77567e-07
6.53622e-07
7.21361e-07
1.49432e-06
2.85529e-06
4.75041e-06
7.06162e-06
9.52745e-06
1.15283e-05
1.33667e-05
1.47039e-05
1.83545e-05
2.21668e-05
2.74326e-05
3.28331e-05
3.62297e-05
3.99553e-05
4.62243e-05
3.88655e-05
2.32677e-05
1.47199e-05
6.64002e-06
1.85533e-06
1.70978e-07
3.47177e-08
2.6698e-08
2.8324e-08
2.86892e-08
3.01749e-08
3.0135e-08
3.1503e-08
3.0917e-08
2.99329e-08
2.92116e-08
2.88095e-08
2.95359e-08
2.99332e-08
2.96139e-08
2.88999e-08
2.90903e-08
2.87841e-08
2.89808e-08
2.86094e-08
2.86755e-08
2.90413e-08
2.87985e-08
2.91011e-08
2.89702e-08
2.96774e-08
2.99366e-08
2.96373e-08
2.89563e-08
2.92139e-08
3.00756e-08
3.07377e-08
3.12336e-08
3.04433e-08
3.00691e-08
2.91593e-08
3.1847e-08
4.10697e-08
4.56599e-08
2.11758e-08
5.12215e-09
1.1267e-08
3.70447e-07
3.15725e-06
8.64735e-06
1.29487e-05
1.5025e-05
1.6871e-05
1.76197e-05
1.8286e-05
1.84776e-05
1.88829e-05
1.8921e-05
1.91795e-05
1.92405e-05
1.94217e-05
1.95114e-05
1.96589e-05
1.97643e-05
1.98904e-05
2.00169e-05
2.01328e-05
2.02569e-05
2.03646e-05
2.04922e-05
2.05894e-05
2.06993e-05
2.07899e-05
2.08541e-05
2.09334e-05
2.0986e-05
2.10794e-05
2.11358e-05
2.12647e-05
2.13639e-05
2.15429e-05
2.17036e-05
2.19404e-05
2.21765e-05
2.25042e-05
2.2781e-05
2.32216e-05
2.36988e-05
2.42635e-05
2.4726e-05
2.52043e-05
2.56751e-05
2.60728e-05
2.6574e-05
2.71041e-05
2.77553e-05
2.83692e-05
2.90611e-05
2.98307e-05
3.0615e-05
3.13671e-05
3.21287e-05
3.28009e-05
3.33807e-05
3.40208e-05
3.46946e-05
3.49112e-05
3.52189e-05
3.56802e-05
3.59892e-05
3.59758e-05
3.6174e-05
3.6418e-05
3.62313e-05
3.61939e-05
3.62111e-05
3.58524e-05
3.57052e-05
3.5411e-05
3.50606e-05
3.4883e-05
3.44241e-05
3.38942e-05
3.35114e-05
3.30026e-05
3.23988e-05
3.1858e-05
3.12027e-05
3.05082e-05
2.98746e-05
2.91561e-05
2.85465e-05
2.76963e-05
2.68564e-05
2.59767e-05
2.50362e-05
2.41549e-05
2.31555e-05
2.21533e-05
2.1186e-05
2.01797e-05
1.92221e-05
1.82411e-05
1.73571e-05
1.64526e-05
1.56992e-05
1.48383e-05
1.42104e-05
1.34503e-05
1.29153e-05
1.22785e-05
1.16412e-05
1.11413e-05
1.04775e-05
9.89723e-06
9.25942e-06
8.65255e-06
7.9121e-06
7.24654e-06
6.42451e-06
5.74088e-06
4.9527e-06
4.28281e-06
3.53523e-06
2.9377e-06
2.26873e-06
1.79084e-06
1.25937e-06
8.50616e-07
4.63399e-07
3.08139e-07
1.56368e-07
1.1776e-07
5.23463e-08
7.23692e-08
4.97123e-08
5.68176e-08
3.37893e-08
4.67641e-08
3.38817e-08
4.61173e-08
3.79498e-08
5.29915e-08
4.42762e-08
6.61105e-08
5.16569e-08
6.75385e-08
4.89966e-08
6.29757e-08
4.42527e-08
6.64896e-08
5.14854e-08
6.96736e-08
5.4221e-08
5.84018e-08
4.15561e-08
5.55133e-08
5.60559e-08
8.96937e-08
1.04872e-07
9.99958e-08
8.14977e-08
5.05991e-08
8.52862e-08
8.7178e-08
5.07992e-08
4.08934e-08
5.41963e-08
6.35165e-08
2.91584e-08
2.58125e-09
3.33022e-08
4.28798e-08
3.02104e-08
3.33984e-08
2.83986e-08
3.40212e-08
3.33367e-08
2.61507e-08
2.78826e-08
3.13354e-08
2.01713e-08
1.78589e-08
1.51928e-08
1.62872e-08
1.71092e-08
1.46022e-08
2.17173e-08
1.45317e-08
1.9393e-08
1.48064e-08
1.75709e-08
1.12977e-08
2.07177e-08
2.07319e-08
3.559e-08
2.8091e-08
7.23673e-08
7.2174e-08
1.13286e-07
1.49566e-07
4.40555e-07
5.83032e-07
1.05557e-06
1.47872e-06
2.20628e-06
2.85312e-06
3.50651e-06
4.16605e-06
4.82179e-06
5.74046e-06
6.62046e-06
7.5056e-06
8.33215e-06
9.09367e-06
9.84263e-06
1.06603e-05
1.11582e-05
1.20572e-05
1.24025e-05
1.31413e-05
1.37993e-05
1.41659e-05
1.49795e-05
1.53889e-05
1.58314e-05
1.65884e-05
1.68996e-05
1.72506e-05
1.80607e-05
1.82675e-05
1.88464e-05
1.87629e-05
1.972e-05
2.04531e-05
1.9547e-05
2.1618e-05
2.38487e-05
2.68495e-05
3.17547e-05
3.65869e-05
3.98991e-05
4.10149e-05
4.24921e-05
4.31563e-05
4.34196e-05
4.36114e-05
4.3709e-05
4.3769e-05
4.39312e-05
4.42529e-05
4.46548e-05
4.51191e-05
4.56121e-05
4.62323e-05
4.64447e-05
4.64192e-05
4.60736e-05
4.56741e-05
4.53446e-05
4.50788e-05
4.48338e-05
4.46683e-05
4.47097e-05
4.46477e-05
4.4651e-05
4.45754e-05
4.45664e-05
4.4493e-05
4.45425e-05
4.46214e-05
4.45921e-05
4.44459e-05
4.38794e-05
4.26586e-05
4.06167e-05
3.7391e-05
3.35136e-05
2.89087e-05
2.43538e-05
1.94384e-05
1.50972e-05
1.23621e-05
1.05324e-05
9.764e-06
9.87713e-06
1.0153e-05
9.29517e-06
7.22368e-06
4.72631e-06
2.75464e-06
2.41674e-06
1.98419e-06
2.3744e-06
2.76847e-06
3.14039e-06
4.04598e-06
5.14661e-06
5.89096e-06
5.66409e-06
4.19176e-06
1.9112e-06
1.33592e-06
1.55633e-06
1.22132e-06
8.63356e-07
1.10891e-06
8.54931e-07
8.59995e-07
8.94022e-07
8.05138e-07
8.4889e-07
9.2304e-07
1.26691e-06
1.98612e-06
3.32603e-06
5.43501e-06
8.15128e-06
1.06391e-05
1.33687e-05
1.5204e-05
1.74551e-05
2.03612e-05
2.52326e-05
3.0618e-05
3.5847e-05
4.24924e-05
5.07776e-05
5.20014e-05
3.28494e-05
1.78083e-05
7.95377e-06
2.50294e-06
3.9213e-07
4.50662e-08
1.95052e-08
2.43958e-08
3.01362e-08
3.15308e-08
3.07736e-08
3.15325e-08
3.08498e-08
2.98299e-08
2.92759e-08
2.88127e-08
2.95624e-08
2.9963e-08
2.96244e-08
2.88884e-08
2.90307e-08
2.87273e-08
2.89606e-08
2.85983e-08
2.85635e-08
2.8874e-08
2.86503e-08
2.89644e-08
2.87836e-08
2.94838e-08
2.98401e-08
2.95868e-08
2.87685e-08
2.90065e-08
2.9845e-08
3.06726e-08
3.11261e-08
3.07759e-08
3.13916e-08
3.093e-08
3.12734e-08
3.02443e-08
4.39273e-08
1.21366e-07
1.63424e-07
5.3633e-08
9.24576e-08
1.25733e-06
5.16859e-06
9.95173e-06
1.25737e-05
1.45135e-05
1.57028e-05
1.64993e-05
1.70663e-05
1.74572e-05
1.78078e-05
1.80475e-05
1.82811e-05
1.84695e-05
1.86386e-05
1.88232e-05
1.8958e-05
1.91245e-05
1.92668e-05
1.94149e-05
1.95256e-05
1.96971e-05
1.97787e-05
1.99361e-05
2.00002e-05
2.01716e-05
2.0191e-05
2.03787e-05
2.04068e-05
2.06428e-05
2.06914e-05
2.09708e-05
2.10841e-05
2.14168e-05
2.15914e-05
2.19694e-05
2.22589e-05
2.27264e-05
2.30878e-05
2.36973e-05
2.42334e-05
2.48732e-05
2.52991e-05
2.58403e-05
2.63204e-05
2.68309e-05
2.74456e-05
2.81354e-05
2.88692e-05
2.9609e-05
3.04057e-05
3.13346e-05
3.21904e-05
3.30541e-05
3.38572e-05
3.45917e-05
3.52332e-05
3.59562e-05
3.659e-05
3.67737e-05
3.71332e-05
3.76304e-05
3.78322e-05
3.77655e-05
3.79783e-05
3.81514e-05
3.7813e-05
3.77548e-05
3.76541e-05
3.71247e-05
3.68822e-05
3.6447e-05
3.59604e-05
3.5654e-05
3.49747e-05
3.42838e-05
3.37636e-05
3.30465e-05
3.22606e-05
3.15487e-05
3.06973e-05
2.97826e-05
2.88851e-05
2.79533e-05
2.7209e-05
2.61399e-05
2.51023e-05
2.39997e-05
2.28592e-05
2.17805e-05
2.05767e-05
1.93822e-05
1.82415e-05
1.70495e-05
1.59395e-05
1.47915e-05
1.37759e-05
1.27135e-05
1.18497e-05
1.08131e-05
1.00729e-05
9.09914e-06
8.40899e-06
7.52311e-06
6.73123e-06
5.93899e-06
5.13677e-06
4.33993e-06
3.61721e-06
2.95345e-06
2.30235e-06
1.79452e-06
1.20004e-06
8.89562e-07
4.35052e-07
3.42255e-07
1.18096e-07
1.25481e-07
3.73949e-08
7.05776e-08
2.67303e-08
5.35415e-08
2.53216e-08
4.96802e-08
2.26193e-08
4.62064e-08
2.14522e-08
4.00579e-08
2.04743e-08
3.65814e-08
2.48305e-08
4.19292e-08
2.86942e-08
4.22321e-08
2.75966e-08
3.75402e-08
2.56612e-08
3.39883e-08
2.41182e-08
2.97172e-08
2.44371e-08
3.47004e-08
3.34048e-08
3.79121e-08
3.08268e-08
3.13552e-08
3.22575e-08
3.90274e-08
4.96306e-08
4.69834e-08
4.80819e-08
3.05382e-08
2.97709e-08
2.27888e-08
4.21045e-08
4.42536e-08
3.86585e-08
4.31258e-08
5.68628e-08
1.08162e-07
6.6564e-08
1.02129e-07
1.27652e-07
3.29481e-08
1.18832e-07
7.82252e-08
5.86505e-08
4.42292e-08
2.45664e-08
2.01611e-08
1.25947e-08
1.10212e-08
8.88556e-09
9.83736e-09
8.64916e-09
9.66864e-09
8.15358e-09
8.02083e-09
7.4786e-09
6.9299e-09
7.97866e-09
7.75613e-09
8.58603e-09
9.80259e-09
9.86358e-09
8.18634e-09
1.14842e-08
5.26844e-09
1.36743e-08
2.85759e-09
1.87192e-08
4.14991e-09
3.44994e-08
2.98832e-09
5.38638e-08
3.62253e-09
5.42869e-08
7.9147e-09
7.42978e-08
7.08869e-08
1.56495e-07
3.40353e-07
4.42857e-07
8.13929e-07
1.34658e-06
1.95297e-06
2.54202e-06
3.06893e-06
3.79021e-06
4.82912e-06
5.54008e-06
6.76341e-06
7.42716e-06
8.40473e-06
9.41684e-06
9.9657e-06
1.10575e-05
1.16818e-05
1.22899e-05
1.32072e-05
1.37489e-05
1.42377e-05
1.52268e-05
1.56273e-05
1.63279e-05
1.65038e-05
1.75082e-05
1.84918e-05
1.77391e-05
1.95637e-05
2.2098e-05
2.60097e-05
3.1495e-05
3.63e-05
3.9891e-05
4.13293e-05
4.26892e-05
4.32011e-05
4.36423e-05
4.42504e-05
4.47745e-05
4.5185e-05
4.56321e-05
4.62352e-05
4.691e-05
4.76842e-05
4.8517e-05
4.94655e-05
4.9866e-05
4.99984e-05
4.98478e-05
4.95555e-05
4.92149e-05
4.89176e-05
4.87087e-05
4.86027e-05
4.8752e-05
4.87998e-05
4.89132e-05
4.89443e-05
4.90422e-05
4.90701e-05
4.92068e-05
4.94344e-05
4.95389e-05
4.9572e-05
4.91662e-05
4.81508e-05
4.63524e-05
4.32816e-05
3.95324e-05
3.47645e-05
2.99823e-05
2.49699e-05
1.96949e-05
1.56448e-05
1.26037e-05
1.06454e-05
1.02876e-05
1.08931e-05
1.10238e-05
9.89568e-06
7.96319e-06
5.20666e-06
3.7275e-06
2.40906e-06
2.13796e-06
2.48771e-06
2.31096e-06
2.95402e-06
4.48757e-06
5.99844e-06
6.9524e-06
6.8761e-06
5.25166e-06
3.0617e-06
2.10254e-06
1.80796e-06
1.30601e-06
1.25946e-06
1.14541e-06
1.03776e-06
9.40152e-07
8.24599e-07
8.30571e-07
8.50062e-07
1.06249e-06
1.26189e-06
1.60286e-06
2.59504e-06
5.04121e-06
7.78743e-06
1.1476e-05
1.40866e-05
1.67658e-05
1.89715e-05
2.22283e-05
2.70872e-05
3.31004e-05
4.0879e-05
5.01867e-05
5.99136e-05
4.56991e-05
2.43254e-05
1.00288e-05
3.0953e-06
4.41246e-07
4.48109e-08
3.45521e-08
3.43972e-08
3.10721e-08
3.09698e-08
3.05081e-08
3.14473e-08
3.08982e-08
2.99044e-08
2.92216e-08
2.88866e-08
2.95118e-08
2.98047e-08
2.96882e-08
2.89019e-08
2.90779e-08
2.87034e-08
2.90309e-08
2.85858e-08
2.85911e-08
2.90577e-08
2.87909e-08
2.91941e-08
2.89193e-08
2.95781e-08
2.98911e-08
2.94912e-08
2.87474e-08
2.90159e-08
2.99776e-08
3.06046e-08
3.12456e-08
3.07068e-08
3.1127e-08
3.12665e-08
2.77e-08
1.56613e-08
7.29536e-09
8.16533e-09
2.10834e-08
2.25648e-08
1.58518e-08
3.03547e-07
2.66152e-06
6.73247e-06
9.65975e-06
1.16009e-05
1.30504e-05
1.3984e-05
1.4703e-05
1.52418e-05
1.56473e-05
1.60178e-05
1.62787e-05
1.6566e-05
1.67488e-05
1.69958e-05
1.71243e-05
1.73574e-05
1.74561e-05
1.76799e-05
1.77625e-05
1.79642e-05
1.80411e-05
1.8247e-05
1.83079e-05
1.85566e-05
1.86012e-05
1.88813e-05
1.89582e-05
1.92948e-05
1.93974e-05
1.97936e-05
1.99541e-05
2.03863e-05
2.0616e-05
2.11016e-05
2.14642e-05
2.20374e-05
2.25025e-05
2.31915e-05
2.37491e-05
2.43562e-05
2.47576e-05
2.53399e-05
2.58712e-05
2.65146e-05
2.72455e-05
2.80595e-05
2.88355e-05
2.96855e-05
3.05707e-05
3.16303e-05
3.25036e-05
3.34367e-05
3.42341e-05
3.50124e-05
3.56912e-05
3.64365e-05
3.69683e-05
3.71318e-05
3.75317e-05
3.80129e-05
3.80589e-05
3.79584e-05
3.81629e-05
3.82174e-05
3.77159e-05
3.76398e-05
3.73761e-05
3.66696e-05
3.63291e-05
3.57459e-05
3.51155e-05
3.46612e-05
3.37488e-05
3.2915e-05
3.22529e-05
3.1314e-05
3.03594e-05
2.94751e-05
2.84274e-05
2.72989e-05
2.61525e-05
2.50419e-05
2.4185e-05
2.29152e-05
2.17193e-05
2.04244e-05
1.91315e-05
1.78906e-05
1.65224e-05
1.5178e-05
1.39025e-05
1.25534e-05
1.13198e-05
9.99415e-06
8.82542e-06
7.53598e-06
6.53153e-06
5.27612e-06
4.52144e-06
3.42008e-06
2.90131e-06
2.00808e-06
1.64018e-06
9.3827e-07
7.8792e-07
2.52539e-07
2.77093e-07
6.47467e-08
1.21246e-07
2.51466e-08
6.43075e-08
2.15295e-08
5.38068e-08
1.93426e-08
6.39861e-08
1.71063e-08
5.95614e-08
2.04725e-08
4.73191e-08
2.24261e-08
4.13976e-08
2.30074e-08
4.84533e-08
2.23498e-08
5.39627e-08
2.35478e-08
6.28833e-08
2.53681e-08
5.58115e-08
2.36432e-08
5.04088e-08
2.52547e-08
5.22134e-08
3.18825e-08
5.63103e-08
3.46119e-08
5.94539e-08
4.41283e-08
6.55263e-08
4.04749e-08
5.05968e-08
3.6554e-08
5.78034e-08
4.80588e-08
6.27573e-08
4.23507e-08
4.81112e-08
3.64576e-08
5.15391e-08
5.63631e-08
7.94939e-08
8.36737e-08
7.10534e-08
8.26419e-08
6.4257e-08
6.50399e-08
5.49382e-08
3.57516e-08
3.12534e-08
4.65163e-08
2.49322e-08
5.24678e-08
7.46267e-08
1.3089e-08
2.0056e-08
1.24171e-08
1.58101e-08
1.42319e-08
1.32643e-08
1.44465e-08
1.03637e-08
1.18108e-08
8.27807e-09
1.0631e-08
9.56451e-09
9.7342e-09
1.28319e-08
7.6438e-09
1.78343e-08
4.8166e-09
2.25751e-08
2.93628e-09
2.64162e-08
2.86046e-09
2.97969e-08
4.01294e-09
3.32625e-08
4.09e-09
3.20174e-08
1.37197e-09
3.50084e-08
6.65494e-10
3.82107e-08
1.45622e-09
2.74389e-08
6.35358e-09
1.49649e-08
2.87162e-08
1.07782e-09
1.20238e-07
7.71601e-11
7.54127e-08
2.53074e-08
2.69669e-08
7.70956e-08
1.58324e-07
1.41321e-07
6.87504e-07
5.63398e-07
1.64009e-06
2.00437e-06
2.7804e-06
3.86241e-06
4.22391e-06
5.44733e-06
6.30176e-06
7.12503e-06