/*--------------------------------*- C++ -*----------------------------------*\
| =========                 |                                                 |
| \\      /  F ield         | OpenFOAM: The Open Source CFD Toolbox           |
|  \\    /   O peration     | Version:  v2006                                 |
|   \\  /    A nd           | Website:  www.openfoam.com                      |
|    \\/     M anipulation  |                                                 |
\*---------------------------------------------------------------------------*/
FoamFile
{
    version     2.0;
    format      ascii;
    class       volScalarField;
    location    "100";
    object      ducSensor;
}
// * * * * * * * * * * * * * * * * * * * * * * * * * * * * * * * * * * * * * //

dimensions      [0 0 0 0 0 0 0];


internalField   nonuniform List<scalar> 
93840
(
0.0793045
0
0.00539778
0
0
0
0
0
0
0
0.0494221
0.00191859
0
0.156721
0
0
0.297155
0.0719995
0
0
0
0
0
0.00813339
0.176595
0
0
0.0219551
0
0
0
0.0131563
0
0
0
0
0
0
0
0.000417116
0
0
0
0
0
0
0
0
0
0
0
0
0
1.75607e-05
0
0
0
0
0
0
0
0
0
0.000117525
0
0
7.98926e-05
0.000153565
0
0
0.000102124
6.06398e-05
0.000252507
0.000117028
0.000130771
0.000261275
0.00013465
0.000189373
0.000237351
0.000189604
0.000210871
0.000243878
0.000242057
0.000303908
0.000281142
0.000323541
0.000349856
0.000313554
0.000330111
0.000362753
0.00040821
0.00041278
0.000409746
0.000427265
0.000446453
0.000458726
0.000454093
0.000459443
0.000489177
0.000516103
0.00052067
0.00052382
0.000678274
0.000830511
0.000568312
0.00030332
0.000455582
0.000667683
0.00067966
0.000664333
0.000643214
0.000624825
0.000686855
0.000722245
0.000711902
0.00066013
0.000659678
0.00063089
0.000543008
0.00047552
0.000353787
0.000167235
0
2.89709e-05
0
0
0
0
0
0
0
0
0
0
0
0
0
0
0
0
0
0
0
0
0
0
0
0
0
0
0
0
0
0
0
0
0
0
0
0
0
0
0
0
0
0
0
0
0
0
0
0
0
0
0
0
0
0
0
0
0
0
0
0
0
0
0
0
0
0
0
0
0
0
0
0
0
0
0
0
0.000841888
0.000635
6.65445e-05
0
0.000121121
0.000247395
0
3.70641e-05
0
0
0
0
0.000153889
0
0
0
0
0
0
0
0
0
0.000102297
2.33829e-05
6.6982e-05
6.53386e-05
0.000105472
0.000144481
0.000128122
0
0
0
0
0
1.47768e-06
0
0
0
0
0
0
0
0
0
0
0
0
0
0.000141592
4.46954e-05
0.00118886
0.00475216
0.00941149
0.00824419
0.00406294
0.000724586
0.000459007
0.000567431
0.000523358
0.000500164
0.000491212
0.000520231
0.00055357
0.000578866
0.00061616
0.000629816
0.000647681
0.000829151
0.000964654
0.000718509
0.000491737
0.000709273
0.00100328
0.000913663
0.000663625
0.000689273
0.00088362
0.000953658
0.000913286
0.000917964
0.000951258
0.000972333
0.00101392
0.00107199
0.00107944
0.00112194
0.00114466
0.00115448
0.00130291
0.00129226
0.00147876
0.00161816
0.00199686
0.00217506
0.00259123
0.00289159
0.00323198
0.00379743
0.00393486
0.00573992
0.00762555
0.0194341
0.0458019
0.0970966
0.0345504
0.0228495
0.0210445
0
0.0134337
0
0
0.00720155
0.010737
0
0
0.0100333
0.0195526
0
0
0
0.0477003
0
0.0660741
0
0.00244789
0.0952648
0.0298424
0.0463825
0
0.0241878
0.0636844
0.00265035
0
0
0
0.936262
0.00658449
0
0
0
0
0
0
0.265999
0.0191314
0
0
0
0.0352477
0
0.0381333
0
0
0
0
0
0.0174703
0
0
0.000743804
0
0
0
0
0
0.0128752
0
0.0010738
0
0.0195733
0.0539944
0
0.00178116
0
0
0.0044497
0.00687101
0
0
0
0.0158022
0
0
0
0
0.0138916
0
0
0.037916
0.0116589
0.0144698
0.036872
0.064178
0
0.100733
0.935809
0
0.0887606
0.0382994
0
0.0157884
0
0.0127777
0
0.0162433
0
0
0
0.00135382
0
0.0031975
0
0.00244865
0
0.000450724
0
0
0
0
0
0.00786853
0.00206436
0
0.0008314
0.00280372
0
0
0.00317757
0
0.00181193
0
0
0.000775267
0.00187192
0.00161801
0.00225477
0.000652416
0
0.00145308
0
0.00155829
0.00139006
0.000702186
0.00170846
0.000279354
0.00107547
0.00103122
0.000908536
0.0011935
0.0012818
0.00116242
0.00135552
0.00140388
0.001689
0.00193371
0.00178494
0.00176483
0.00184526
0.00183465
0.00191777
0.00189329
0.00192887
0.00216911
0.00220309
0.00223473
0.00231566
0.00242995
0.00261644
0.00271328
0.00277142
0.00333079
0.00406642
0.00328506
0.00219594
0.00284115
0.00369025
0.00386059
0.00381021
0.00372872
0.00364543
0.00405149
0.00444977
0.00449597
0.00428923
0.00424022
0.00393256
0.00353133
0.00305908
0.00256681
0.000217568
0
0
0
0
0
0
0
0
0
0
0
0
0
0
0
0
0
0
0
0
0
0
0
0
0
0
0
0
0
0
0
0
0
0
0
0
0
0
0
0
0
0
0
0
0
0
0
0
0
0
0
0
0
0
0.0535537
0
0
0.189721
0.117969
0.217365
0.476708
0.230121
0
0
0
0
0
0
0
0
0
0
0
0
0
0
0
0
0
0
0
0
0
0
0
0
0
0
0
0
0
0
0
0
0
0
0
0
0
0
0
0
0
0
0
0
0
0
0
0
0
0
0
0.000150957
0
0
0
0
0
0
0
0
0
0
0
0
0.000721729
0.000111509
0.0113267
0.0431691
0.0523133
0.0469259
0.00856175
0.0068207
0.00705458
0.00662701
0.00643352
0.00608121
0.005722
0.00539019
0.00505223
0.00474255
0.00459901
0.00447194
0.0042761
0.00423315
0.00409239
0.00368047
0.00346556
0.00338261
0.00295161
0.00264983
0.0026053
0.00243329
0.00202641
0.00154413
0.00128116
0.000997549
0.000580822
4.44056e-05
0
0
0
0
0
0
0
0
0
0
0
0
0
0
0
0
0
0
0
0
0
0
0
0
0
0.00544832
0
0
0.0138615
0
0
0
0
0
0
0.0867137
0.12275
0.0233645
0.0273039
0.0384812
0.0276366
0.00136368
0
0
0
0
0
0
0.199902
0.327523
0.418403
0
0
0.00631649
0.129679
0.0225438
0.043433
0.0120604
0.036548
0.0162651
0.00108003
0.0222274
0.0701766
0.0214204
0.00991243
0.0236522
0.0429607
0.0431667
0.0313145
0
0.0151645
0
0.00888061
0
0
0.0350571
0
0.0070744
0
0
0
0.0300752
0.00857419
0.0193891
0
0
0
0
0.0373952
0
0
0.0255894
0.174955
0.0190942
0.0266016
0.0263456
0.0437554
0
0
0
0
0.00568357
0
0.00012526
0
0.0674901
0
0
0
0
0.0540984
0
0
0.0791628
0
0
0
0
0.0470705
0
0
0
0
0
0
0
0
0
0
0
0
0
0
0
0
0
0
0
0
0
0
0
0
0
0
0
0.000232717
0
0
0
0
0
0
0.00306702
0
0
0.000791146
0.00192409
0.00205541
0.00180646
0.00247519
0.00204115
0.00243263
0.00193517
0.00288075
0.00243766
0.00267846
0.00302868
0.00299223
0.00369835
0.00346274
0.00399997
0.00422973
0.00390292
0.00395497
0.00426063
0.0046565
0.00475787
0.00469448
0.004917
0.00522624
0.0053765
0.00533617
0.00541527
0.00568682
0.00591033
0.00599369
0.00597333
0.00769796
0.00976379
0.00713987
0.00376966
0.00550574
0.0077066
0.00807181
0.00797071
0.00788423
0.00771786
0.00841722
0.00913568
0.00905842
0.00876561
0.00933097
0.00890744
0.00814395
0.00674103
0.00639498
0.00380421
0.00339446
5.41524e-05
0
0
0
0
0
0
0
0
0
0
0
0
0
0
0
0
0
0
0
0
0
0
0
0
0
0
0
0
0
0
0
0
0
0
0
0
0
0
0
0
0
0
0
0
0
0
0
0
0
0
0
0
0
0
0
0
0
0
0
0
0
0
0
0
0
0
0
0
0
0
0
0
0
0
0
0
0.0110356
0.00614845
0.00631935
0
0
0.00673739
0.0105469
0.00579346
0.0162317
0.000246096
0
0
0
0
0
0
0
0
0
0
0
0
0.00205151
0.00139474
0.000580538
0.0019419
0
0.000106906
0.000749546
0
0
0
0
0
0
0
0
0
0
0
0
0
0.00232951
0
0
0
0
0
0.000827938
0.000885642
0.0183907
0.0706589
0.0855812
0.0802906
0.0220515
0.00512234
0.00451928
0.0050148
0.00513046
0.00504537
0.00515076
0.0055246
0.00580957
0.00614158
0.00646882
0.00666272
0.00692366
0.00850494
0.00952057
0.0072694
0.00548493
0.00735626
0.00928955
0.00821255
0.00630124
0.00659724
0.00796376
0.00818788
0.00770444
0.00754161
0.00746392
0.00729865
0.00721442
0.00726753
0.00701005
0.00695559
0.00679365
0.00655654
0.00696279
0.00650507
0.00670803
0.00660717
0.0069866
0.0064467
0.00627737
0.00644223
0.00584382
0.00592936
0.00538201
0.00323288
0.00418899
0.00530655
0.00685998
0.00977002
0.00664118
0.00240158
0
0.00333362
0.00338058
0.0121626
0.0013512
0
0.0183656
0.00328544
0.0121187
0
0
0.0199257
0
0.0108922
0.00760884
0.1798
0.0950754
0.0275691
0.229868
0
0.330458
0
0.165162
0
0.00386067
0.416927
0.127902
0
0
0.0410375
0
0
0.0132431
0.00243307
0.00119655
0
0
0
0
0.00153004
0
0
0
0
0.0402738
0
0
0.0462585
0
0.0089408
0
0.0319367
0.23321
0.00697269
0
0
0.00285153
0
0
0.0591575
0
0.00245916
0.00678562
0.0528004
0
0
0.0838452
0
0
0
0.0163174
0
0.0582652
0
0
0.0361322
0.00847992
0.037507
0
0.0421961
0
0.00785357
0.271557
0
0.00646347
0.00773019
0.0912772
0
0
0.078806
0
0.0139478
0
0
0
0
0
0
0
0
0
0.0141953
0
0
0
0
0
0
0
0
0
0
0
0
0
0
0
0.00177344
0
0
0
0
0
0
0
0.000199657
0
0
0
0.00430268
0.00144365
0
0.000431665
0.00194154
0.00150978
0.00218796
0.00370855
0.0011219
0.00263098
0.00179576
0.00292082
0.00230379
0.00285529
0.00305527
0.00298206
0.00363178
0.00347615
0.00402824
0.00434678
0.00399266
0.0040209
0.00430765
0.00465252
0.00478585
0.00472368
0.00490899
0.00529088
0.00541809
0.00539682
0.00548966
0.0057856
0.00608458
0.00623628
0.00630948
0.00806982
0.0101589
0.00748165
0.00413404
0.00589631
0.00824406
0.00872002
0.00871952
0.00868568
0.00851395
0.00943241
0.010299
0.010451
0.0105303
0.0110613
0.0107425
0.00966247
0.00849028
0.00778408
0.00439817
0.00331756
0
0
0
0
0
0
0
0
0
0
0
0
0
0
0
0
0
0
0
0
0
0
0
0
0
0
0
0
0
0
0
0
0
0
0
0
0
0
0
0
0
0
0
0
0
0
0
0
0
0
0
0
0
0
0
0
0
0.0290501
0.0801389
0.0150515
0
0
0
0
0
0
0
0
0
0
0
0
0
0
0
0
0
0.414076
0.251453
0
0.479661
0.544267
0.222022
0.118383
0.14686
0.0638692
0.0470198
0.0559093
0.0335094
0
0
0
0
0
0
0
0
0
0
0
0
0
0
0
0
0
0
0
0
0
0
0
0
0
0
0
0
0
0
0
0
0
0
0
0
0.00196688
0
0.0266017
0.101653
0.107532
0.0845181
0.0274371
0.00556925
0.00529323
0.00581315
0.00582529
0.00570977
0.005755
0.00609443
0.00636587
0.00662796
0.00693442
0.00710965
0.00731221
0.00862205
0.00940245
0.00748132
0.00597996
0.00746898
0.00889802
0.00792067
0.0063492
0.00647857
0.00735913
0.00735355
0.00685732
0.00661132
0.00637589
0.00603044
0.00578929
0.00567184
0.00520258
0.0050573
0.00473362
0.00425583
0.00454799
0.00365326
0.00361144
0.00331862
0.00336325
0.00232832
0.0018875
0.00150564
0.000808644
0.00109527
0
0
0
0.000885777
0.000310243
0.000334797
0.00161279
0
0
0
0.000708204
0.00485403
0
0
0.00448671
0
0.014366
0
0.00361868
0
0
0
0
0.0923393
0.0301893
0.0537988
0.0815661
0
0.0249514
0.0129273
0.0296506
0
0
0.0784917
0.0977371
0
0.0529835
0
0.358514
0
0
0.0156834
0.0283092
0.0202328
0
0.00328031
0
0.00857923
0
0
0.0995953
0.0165931
0.0944599
0
0.0179484
0
0
0.00223605
0
0
0
0.00789531
0
0.017146
0
0.0475556
0
0
0.105834
0.102104
0.00182849
0.0933526
0.00884947
0
0
0
0
0
0.0361895
0
0
0.0111186
0
0.0672592
0
0
0
0.061458
0
0.0695944
0
0.0179301
0
0.00266474
0.0777951
0
0.0343816
0.0318339
0
0.0115845
0
0
0
0
0
0
0
0
0
0
0
0
0
0
0
0
0
0
0
0
0
0
0
0
0
0
0
0
0
0
0.00159641
0
0
0
0
0
0
0.00214508
0
0.000101092
0
0.00319173
0.000253136
0.00306247
0.00404357
0.00159614
0.00233506
0.00241675
0.00302463
0.00260587
0.00309373
0.00339513
0.00331853
0.00394237
0.00383954
0.00441048
0.00481563
0.00439178
0.00443448
0.00477585
0.0051973
0.00532444
0.00528735
0.00551063
0.00590079
0.00606741
0.00604525
0.0061665
0.00655964
0.00695011
0.00715964
0.00731805
0.00942533
0.0118062
0.00860659
0.0047792
0.00691236
0.00984978
0.0104648
0.0106294
0.0107096
0.0107259
0.0120059
0.0130737
0.0134526
0.0137372
0.0150415
0.0149251
0.0133593
0.0117347
0.0103807
0.00582956
0.00182386
0
0
0.000604928
0
0
0
0
0
0
0
0
0
0
0
0
0
0
0
0
0
0
0
0
0
0
0
0
0
0
0
0
0
0
0
0
0
0
0
0
0
0
0
0
0
0
0
0
0
0
0
0
0
0
0
0
0
0.567175
0.179641
0.259652
0
0
0
0
0
0
0
0
0
0
0
0
0
0
0
0
0
0
0
0.726657
0
0
0
0.0877003
0
0.301267
0.186161
0.401523
0
0.241773
0.0292279
0.276787
0
0.120845
0
0.00885368
0
0
0
0
0.000949368
0
0.00473607
0.00130676
0.00238336
0.00198709
0.00415242
0
0
0
0
0
0
0
0.00073407
0
0
0
0
0
0
0
0
0
0
0
0.00237785
0
0.0257202
0.132971
0.129603
0.102533
0.0342027
0.00555656
0.00488354
0.00584
0.00573806
0.0055664
0.0055911
0.00602334
0.00644279
0.00682102
0.00721442
0.00746836
0.00772584
0.00920896
0.0100771
0.00801707
0.00636938
0.00797239
0.00967477
0.0086966
0.00695568
0.00705411
0.00798594
0.00801286
0.00747969
0.00720314
0.00697751
0.00665098
0.00641752
0.0062881
0.00582292
0.00562253
0.0052878
0.00481644
0.00498034
0.00409593
0.0040637
0.00365593
0.00380082
0.00283018
0.00218624
0.00202331
0.00104212
0.000930496
2.49101e-05
0
0
0
0.00103885
0.000575916
0
0.00180585
0.0021647
0
0.000627526
0
0.00430466
0.00178976
0
0
0.000709884
0
0
0.00573991
0.0249755
0
0.00823375
0.0017817
0
0.0498294
0
0
0
0.0605777
0
0
0
0.0622404
0.0533907
0.0304012
0.0140102
0
0
0.776402
0
0.050953
0.163878
0.0134793
0
0.00919956
0
0
0.00184374
0
0
0
0
0
0
0
0.0397706
0
0
0.0842583
0
0
0
0
0
0
0
0.00448474
0
0.133486
0.0277933
0
0.0470239
0
0.00548499
0
0.0199049
0.0224064
0.00675906
0
0
0
0
0.0005028
0
0.10084
0
0.00103166
0
0.0619043
0.00728794
0
0
0
0.0520316
0.00313273
0
0.0633092
0
0.0309579
0
0
0
0
0
0
0
0
0
0
0.00172655
0
0
0
0
0
0
0
0
0
0
0
0
0
0
0.00257236
0
0
0
0
0.0013895
0
0
0.0029793
0
0
0
0.00529978
0.000421818
0
0
0.00354515
0.00168609
0.0021402
0.00434933
0.00131096
0.00328023
0.00209736
0.00329345
0.00287064
0.00335402
0.00363719
0.00356055
0.00430021
0.00412576
0.00480924
0.00518998
0.00479148
0.0048001
0.00514589
0.00560747
0.00579506
0.00578563
0.00609957
0.00654341
0.00676537
0.00675509
0.0069345
0.00735827
0.00780349
0.008125
0.00837259
0.0108775
0.0137048
0.0100906
0.00576387
0.00836182
0.0117494
0.0127694
0.0132275
0.0136122
0.013759
0.0155949
0.0173426
0.0180924
0.0191873
0.0216207
0.0215252
0.0194998
0.0168285
0.0140576
0.00754992
0.0136012
0.0182299
0
0
0
0
0
0
0
0
0
0
0
0
0
0
0
0
0
0
0
0
0
0
0
0
0
0
0
0
0
0
0
0
0
0
0
0
0
0
0
0
0
0
0
0
0
0
0
0
0
0
0
0
0
0
0
0
0.074154
0.712807
0
0
0
0
0
0
0
0
0
0
0
0
0
0
0
0
0
0
0
0
0.634515
0.408884
0.0774765
0.0920575
0
0
0.130654
0.2125
0.261157
0.0710994
0.198667
0
0.361519
0.19066
0.212346
0
0
0
0
0
0.0807069
0.400067
0.0543575
0.119549
0.022813
0.0372052
0.0243892
0
0
0
0
0
0
0
0
0
0.00188752
0
0
0
0.00280722
0
0
0
0
0
0.000339532
0
0.030722
0.168603
0.183991
0.133468
0.0411198
0.0053833
0.0050053
0.00605869
0.00569648
0.00532951
0.00537905
0.00594228
0.00641517
0.00688044
0.00733405
0.00763519
0.00797966
0.00956542
0.0105648
0.00846863
0.00676062
0.00846943
0.0101826
0.00915682
0.00737892
0.00750891
0.0084934
0.00854284
0.00801355
0.00776624
0.00750704
0.00717268
0.00690082
0.00673638
0.0062828
0.00605422
0.00571226
0.00525329
0.00542605
0.00450601
0.00451113
0.00423648
0.00406378
0.00320289
0.00253109
0.00220425
0.00142104
0.00129418
0
0
0.000723011
0
0.00164964
0.00115831
0
0.00206951
0.000318968
0.00305532
0
0
0.00349365
0
0
0
0
0.00807226
0
0
0.0113381
0.0054817
0.0388834
0
0.00519726
0
0
0.00884112
0
0.0785865
0.0766681
0
0
0.0155061
0
0.0107739
0
0
0.0135909
0.0593795
0.869833
0
0
0.0486886
0
0.0135801
0
0
0
0
0
0.0841196
0.0251529
0.0468621
0
0.0479647
0
0
0
0
0.0367663
0.011463
0
0
0.00154116
0.0102129
0
0.0210766
0.0354601
0
0.0184118
0
0.0414153
0
0
0
0
0
0.0153959
0
0
0
0
0
0
0.169955
0
0
0
0.0994854
0
0.161822
0
0
0.0283515
0.0210466
0
0.0692738
0
0.0124073
0
0.0298775
0
0
0
0
0
0
0
0
0
0
0
0
0
0
0
0
0
0
0
0
0
0
0
0
0
0
0
0
0
0
0
0.00310931
0
0
0.000157309
0.00217698
0.00090508
0
0
0.00295013
0.00127353
0.00325387
0.00409145
0.00244594
0.00189555
0.0033068
0.00325195
0.00299301
0.00347244
0.00386081
0.00382314
0.0044122
0.00437241
0.00508398
0.0055278
0.0050738
0.00514064
0.00552895
0.00607798
0.00626931
0.00633792
0.00664673
0.00715221
0.00743393
0.00746059
0.00771961
0.00829689
0.00890108
0.00934816
0.00978558
0.0127883
0.0160479
0.0119237
0.00710091
0.0103456
0.0147639
0.0162234
0.0172911
0.018213
0.0190586
0.0221179
0.0249107
0.0270806
0.0300694
0.0354243
0.037154
0.035764
0.0342641
0.0301626
0.0163102
0.00439153
0.00477109
0
0
0
0
0
0
0
0
0
0
0
0
0
0
0
0
0
0
0
0
0
0
0
0
0
0
0
0
0
0
0
0
0
0
0
0
0
0
0
0
0
0
0
0
0
0
0
0
0
0
0
0
0
0
0
0.349433
0.107632
0.170118
0.00593836
0
0
0
0
0
0
0
0
0
0
0
0
0
0
0
0
0
0.328962
0
0
0
0.421384
0.37123
0.273456
0
0.286531
0
0.373321
0.0744499
0.12082
0
0.0119661
0.210652
0.207099
0
0
0
0
0
0
0.0800143
0.209353
0.256785
0.240978
0.326655
0.0686137
0.223537
0
0
0
0
0
0.0103754
0
0
0
0
0.00189587
0
0
0
0
0
0
0
0.00457298
0
0.0424878
0.199643
0.251356
0.167176
0.0511835
0.00535811
0.00456775
0.00646123
0.00587398
0.00526236
0.0051947
0.00578353
0.00634775
0.00689256
0.00740431
0.00778778
0.00817177
0.00989255
0.0109065
0.00870063
0.00692131
0.00867087
0.0106014
0.00964018
0.00777759
0.00787964
0.00885805
0.00892321
0.00837376
0.00809676
0.00785068
0.00754704
0.00730007
0.00714978
0.00671483
0.00645236
0.00609553
0.00565582
0.00570049
0.00481544
0.00476198
0.00444678
0.00442804
0.0037196
0.00297977
0.00245205
0.00215158
0.000902149
4.48556e-05
0.000326565
0
0
0.00064142
0.000411694
0
0
9.3137e-05
0
0.00275672
0
0
0
0.00708162
0
0
0
0
8.86095e-05
0
0.0125323
0
0
0.0169055
0
0
0
0.0307749
0.0224542
0.0544588
0
0.00438797
0
0
0.0756117
0
0
0.0135183
0
0
0.42316
0.581068
0.0486873
0
0.023134
0.00282587
0
0
0
0
0
0.0259824
0
0
0
0
0
0
0
0
0.016129
0.0255017
0.00715521
0
0.00549367
0
0
0.0916965
0.0630336
0.0179351
0.046192
0
0.0522534
0.0189002
0
0.0786534
0.0312039
0.00564339
0
0.0343114
0
0.030818
0.057954
0.0641212
0
0.00503403
0
0
0.0806221
0.0579667
0.015423
0
0
0.028716
0
0
0
0
0
0
0
0
0
0
0
0
0
0
0
0
0
0
0.00584509
0
0
0
0
0
0
0
0
0
0
0
0
0
0
0
0
0
0
0
0
4.8644e-05
0
0
0.0038641
0
0.00130538
0
0.00152831
0.00261283
0.00339504
0.0022119
0.00388591
0.00157028
0.00351913
0.00333413
0.00323818
0.00374553
0.00402979
0.00404786
0.00470107
0.00469047
0.00543595
0.00589871
0.00549074
0.00551865
0.00593097
0.00652088
0.00681916
0.00695518
0.00743462
0.00803281
0.00841057
0.00850397
0.00889438
0.00955433
0.0103352
0.0110344
0.0117584
0.0156212
0.0198638
0.0151389
0.00958388
0.0140145
0.0197495
0.022602
0.02525
0.028121
0.030945
0.0378176
0.0471204
0.0533433
0.0685324
0.0970418
0.0950958
0.137096
0.122363
0.188421
0
0.200499
0
0
0.087429
0
0
0
0
0
0
0
0
0
0
0
0
0
0
0
0
0
0
0
0
0
0
0
0
0
0
0
0
0
0
0
0
0
0
0
0
0
0
0
0
0
0
0
0
0
0
0
0
0
0
0
0
0
0
0.187019
0.915352
0.21353
0
0
0
0
0
0
0
0
0
0
0
0
0
0
0
0
0
0
0
0
0
0
0.155401
0.540669
0.334702
0.3116
0
0.195294
0.206504
0.113166
0.25095
0
0.103231
0
0.316378
0
0
0
0
0.174942
0.216898
0.146173
0.319218
0.189802
0.333461
0.11399
0.200271
0
0
0
0
0
0.0210878
0.0970612
0.0126957
0
0
0
0.0249326
0
0
0
0
0
0
0.00497605
0
0.0597175
0.267136
0.36698
0.223451
0.071031
0.00475943
0.00527654
0.00755956
0.00650093
0.0054362
0.00528748
0.00595952
0.00646104
0.00702483
0.00757562
0.00794922
0.00839231
0.0101602
0.0113007
0.00907658
0.00722314
0.00906744
0.0109698
0.00992836
0.00805048
0.00818483
0.00921076
0.00929639
0.00876034
0.00852475
0.00825039
0.00794472
0.00765273
0.00744754
0.00703631
0.00675018
0.00638367
0.00600938
0.00589917
0.00520089
0.00521732
0.00483322
0.00455269
0.00408891
0.00334182
0.00274282
0.00233897
0.00129737
0.000130749
0.000589957
0
0.00062594
0.000223343
0.00014948
0.00229461
0
0
0.000733278
0.00103271
0.00168646
0
0.000700436
0.00150736
0
0.00337948
0
0.00110384
0.0056232
0
0
0
0.00459847
0
0.0272211
0.037147
0
0
0
0
0.00826542
0.0614275
0
0
0.0789433
0.0156667
0
0
0
0.0707651
0.00740821
0
0.06041
0
0.0232717
0.0123727
0
0
0
0
0.0284742
0
0
0
0
0
0.0081919
0
0.03446
0.0117678
0.0197156
0
0.00608553
0
0.0249563
0
0
0
0
0.0256347
0.134305
0
0
0
0.0209854
0
0.00517409
0.0197083
0
0
0
0
0
0
0
0.0107805
0
0
0.0643034
0.0393573
0.145029
0.0156405
0.0512756
0.0193094
0
0.0345006
0
0
0
0
0
0
0
0
0
0
0
0
0
0
0
0
0
0
0
0
0
0.00531879
0
0
0
0
0
0
0
0
0
0
0
0
0
0
0.000744904
0
0
4.66441e-05
0.00421101
0.000918086
0
0
0
0.00493073
0.00367839
0.00128127
0.00346299
0.00284161
0.00295994
0.00372386
0.00313466
0.00407633
0.00413456
0.00430435
0.00490076
0.00492155
0.0058454
0.00630876
0.00591555
0.00598682
0.00652071
0.00721881
0.00759054
0.00789491
0.00833732
0.00911564
0.00965541
0.00989295
0.0105074
0.0115424
0.0127472
0.0138424
0.0151874
0.0204559
0.0263852
0.0210237
0.0146048
0.0217512
0.0332955
0.0384722
0.0463836
0.0565326
0.0721543
0.102282
0.126469
0.167277
0.213883
0.337614
0.310185
0.434954
0.286112
0.444674
0.134708
0.390532
0.110386
0
0
0
0
0
0
0
0
0
0
0
0
0
0
0
0
0
0
0
0
0
0
0
0
0
0
0
0
0
0
0
0
0
0
0
0
0
0
0
0
0
0
0
0
0
0
0
0
0
0
0
0
0
0
0
0.285814
0.102015
0.510051
0
0
0
0
0
0
0
0
0
0
0
0
0
0
0
0
0
0
0
0
0.0499276
0
0
0
0
0.0678768
0.12084
0.429756
0.0132893
0.14516
0
0.25509
0.306015
0.0899834
0
0
0.164982
0
0
0
0
0.157769
0.110624
0.126177
0.151772
0.192844
0.11135
0.135273
0
0
0
0
0
0
0
0.139987
0.261259
0
0
0
0.117382
0
0
0
0
0
0.018506
0.00373665
0.11734
0.386383
0.489166
0.315222
0.101218
0.0038029
0.00520375
0.00950387
0.00815929
0.00637209
0.00589069
0.00644401
0.0069299
0.00746293
0.00798155
0.00839419
0.00880433
0.0106897
0.0117549
0.00931049
0.00736312
0.00922587
0.011345
0.0103914
0.0084313
0.00853267
0.00952556
0.00960652
0.00903428
0.0087473
0.00849181
0.00821374
0.0079555
0.00779262
0.0073929
0.00706176
0.00670306
0.00631114
0.00616038
0.00540793
0.00527449
0.00496399
0.00479402
0.00452809
0.00370097
0.00306727
0.00258651
0.0015532
0.000522314
5.11307e-05
0
1.67421e-06
0
0.00177987
0.000250537
0
0.00135196
0
0.00108573
0.000534739
0.000256684
0
0
0
0
0
0
0
0.0119332
0
0
0.00616876
0
0.00258908
0.0330386
0.00476564
0
0
0
0.0748709
0.02792
0
0
0
0.0181051
0.0182001
0
0
0.0175897
0.0600943
0
0.0397584
0.00351647
0.0684317
0.0221021
0
0
0
0
0.0128448
0.0492424
0.0482787
0.00362692
0
0
0
0.0186382
0
0
0.0150377
0.00552475
0
0
0.0616998
0
0
0.0441666
0
0.00222193
0
0.104777
0.000479175
0.0354609
0
0.106425
0
0
0
0.0876485
0.00306856
0.00892204
0.0208163
0.00973366
0.0360313
0.0404285
0
0
0.0664628
0
0.0746891
0
0.0441921
0.0436608
0
0.000942033
0.0135761
0.00200592
0
0
0
0
0
0
0
0
0
0
0
0
0
0
0
0
0
0
0
0.0152314
0
0
0
0
0
0
0
0
0
0
0
0
0
0
0
0.000680321
0
0
0.00134853
0.00122037
0
0.000974336
0
0.00275076
0.00381423
0.00234266
0.00369416
0.00130297
0.00402923
0.00377286
0.003308
0.00447313
0.00450815
0.00463694
0.00527223
0.00546106
0.00640935
0.00692673
0.00660749
0.00669921
0.00728049
0.00812412
0.00872311
0.00915916
0.00999327
0.0110775
0.011864
0.0124146
0.0134751
0.0149832
0.0170147
0.0192917
0.0222994
0.0330992
0.0459723
0.0383764
0.0300214
0.0538126
0.0669094
0.108761
0.136005
0.1835
0.237777
0.36865
0.406035
0.471716
0.469025
0.534899
0.461604
0.438297
0.365605
0.417597
0.136736
0.169697
0
0
0.127131
0
0
0
0
0
0
0
0
0
0
0
0
0
0
0
0
0
0
0
0
0
0
0
0
0
0
0
0
0
0
0
0
0
0
0
0
0
0
0
0
0
0
0
0
0
0
0
0
0
0
0
0
0
0.182132
0.222587
0.907043
0.166616
0
0
0
0
0
0
0
0
0
0
0
0
0
0
0
0
0
0
0
0
0.432034
0.235561
0
0
0
0
0.419002
0
0.16555
0
0
0
0.422693
0.145802
0
0
0.0475196
0
0
0
0.16129
0.277251
0.196959
0.219578
0.222005
0.21835
0.10647
0
0
0
0
0
0
0
0
0
0.151751
0.190857
0
0
0.0515766
0
0
0
0
0.284146
0.0924675
0.580872
0.655888
0.629048
0.480401
0.151574
0.00383187
0.00764161
0.0145648
0.0116554
0.00874712
0.00769916
0.00809249
0.00824599
0.0085922
0.00899854
0.00922261
0.00955247
0.0113875
0.0125513
0.00997237
0.00781339
0.00977362
0.0118443
0.0107304
0.00871129
0.00882143
0.00986097
0.00997179
0.00940567
0.00915756
0.00886025
0.0085768
0.00825742
0.00800934
0.0076393
0.00729092
0.00689374
0.00659847
0.0062087
0.00578499
0.00570159
0.00522763
0.00493508
0.00479071
0.0039014
0.00334788
0.00275561
0.00140997
0.00125882
0.000361138
0.000158698
0
0.00232177
0.000389442
0
0.00115592
0
0
0.00114003
0
0
0.000199602
0.000507107
0.00074129
0
0.00454775
0
0
6.08993e-06
0.00126784
0.0142253
0.00240834
0.00269772
0
0
0.0125144
0.042312
0
0
0.05645
0.0385812
0
0
0
0.0278595
0.0178426
0.00785222
0.00401282
0
0.0100665
0
0.0527895
0.0319241
0
0.0422717
0
0.000184877
0
0
0.0120873
0
0
0.0413689
0.087229
0
0
0.0135748
0.00129887
0.0127061
0.0118867
0.00517181
0
0
0
0.000300675
0.0333066
0
0
0
0
0.0703124
0
0.0133745
0
0
0
0.00828436
0
0
0.00757016
0
0.0214128
0
0.00981525
0.0861051
0
0
0.090395
0
0.149533
0
0.0161905
0.0757115
0
0
0.0362727
0
0
0
0
0
0
0
0
0
0
0
0
0
0
0
0
0
0
0
0
0.00650002
0
0
0
0
0
0
0
0
0
0
0
0
0
0
0
0
0
0
0
0
0
0.00214152
0
0.00387115
0.00360992
0.0012671
0.0044333
0.00245603
0.00316857
0.00424533
0.00344858
0.00494715
0.00486021
0.00504394
0.00573444
0.00612509
0.00708083
0.00789758
0.00766117
0.00768003
0.00868954
0.00976667
0.0106334
0.0114422
0.0125963
0.0143479
0.0160607
0.0176168
0.0202165
0.024588
0.0305285
0.0371894
0.0495236
0.0768072
0.120727
0.100223
0.104516
0.18116
0.202237
0.29794
0.362167
0.418458
0.436145
0.491534
0.460154
0.468973
0.478538
0.495923
0.456331
0.427694
0.335361
0.354415
0.0332987
0.0263538
0
0.282901
0.30877
0
0
0
0
0
0
0
0
0
0
0
0
0
0
0
0
0
0
0
0
0
0
0
0
0
0
0
0
0
0
0
0
0
0
0
0
0
0
0
0
0
0
0
0
0
0
0
0
0
0
0
0
0
0.328169
0.148966
0.765624
0
0.0406009
0
0
0
0
0
0
0
0
0
0
0
0
0
0
0
0
0
0
0
0
0.134929
0.536298
0.163028
0.028769
0.220026
0.0337334
0.16342
0
0.0639359
0
0
0
0.265779
0.115781
0
0
0
0
0
0
0.266416
0.164582
0.277348
0.146147
0.341382
0.102734
0
0
0
0
0
0
0.24972
0
0
0
0.214475
0
0
0
0
0
0
0
0.252347
0.22115
0.166465
0.854281
0.752413
0.660163
0.25718
0.00237413
0.0115456
0.0274411
0.0206994
0.0151119
0.0123838
0.0116206
0.0111872
0.0110581
0.0110861
0.0110768
0.0111005
0.0129269
0.0138208
0.0107009
0.00827055
0.0101803
0.0124899
0.0114343
0.00924715
0.00929799
0.010275
0.0103505
0.00970822
0.00936212
0.00907216
0.00879224
0.00852077
0.00833021
0.00795418
0.00756768
0.0071973
0.00684899
0.00646275
0.00589661
0.00565544
0.00522825
0.00495745
0.00498556
0.00421961
0.00346208
0.00294568
0.00158062
0.00135593
0.000667148
0
0.000707778
0.0010428
0
0.00141087
0
0
0
0.00115888
0.000854549
0
0.000258326
0
5.17941e-05
0
0
0
0.00118315
0
0
0.00720771
0
0.00658844
0.0108647
0
0
0.0314413
0.00804394
0.00401274
0
0
0.0565862
0.00925871
0
0
0.0136869
0.00130483
0
0
0
0
0.0135926
0.188072
0.0147214
0.0920214
0
0.00313879
0
0
0.0246449
0
0
0.0768107
0
0
0
0
0.00370024
0.0140273
0.010578
0
0
0
0.0199135
0
0.0444174
0.00988943
0
0.0401962
0.0659274
0
0
0.0171301
0
0
0
0
0
0.0584811
0.0020759
0
0
0.238556
0
0.0338975
0.0110844
0.00896311
0
0.0535436
0.0577276
0
0.501489
0.0099521
0.145749
0
0.0561838
0
0
0
0
0
0
0
0
0
0
0
0
0
0
0
0
0
0
0
0
0
0
0
0
0
0
0.00102794
0
0
0
0
0
0
0
0
0.00187221
0
0
0
0.00119084
0.000898063
0
0.00319042
0
0.00350145
0.00303225
0.00261697
0.00244979
0.00425687
0.00295814
0.00476471
0.00396836
0.00541975
0.00559987
0.00584309
0.0066037
0.00713817
0.00852598
0.00940177
0.00938959
0.00984299
0.0111523
0.0130468
0.0152359
0.0172605
0.0207217
0.0257579
0.0307114
0.038
0.0472026
0.0659993
0.0821764
0.114116
0.163397
0.247331
0.330028
0.254347
0.258439
0.33153
0.344613
0.415408
0.432448
0.444729
0.452044
0.478989
0.453151
0.468966
0.510344
0.516702
0.408486
0.43137
0.344564
0.32571
0.0549938
0.2416
0
0
0
0
0
0
0
0
0
0
0
0
0
0
0
0
0
0
0
0
0
0
0
0
0
0
0
0
0
0
0
0
0
0
0
0
0
0
0
0
0
0
0
0
0
0
0
0
0
0
0
0
0
0
0
0
0.3047
0.241324
0.884479
0.204099
0.338032
0
0
0
0
0
0
0
0
0
0
0
0
0
0
0
0
0
0
0.384358
0
0
0
0
0
0.236237
0
0.181607
0
0
0.0977099
0.288522
0
0
0.137781
0.336822
0
0
0
0.331571
0
0.233373
0.224483
0.289687
0.128375
0.384622
0.11676
0
0
0
0
0
0
0
0.228287
0.130419
0
0
0.0636512
0.128028
0
0
0
0
0
0.0809638
0.211184
0.0896961
0.979024
0.884701
0.79147
0.471749
0
0.0305857
0.0543529
0.0475543
0.0320119
0.027375
0.0239721
0.0201622
0.0176798
0.0160181
0.0146838
0.013889
0.015332
0.0161351
0.0124897
0.00943112
0.0113495
0.0135575
0.0121752
0.00978249
0.00976622
0.0107842
0.0108842
0.0102227
0.00988738
0.00951693
0.00920016
0.00882754
0.0085179
0.00818119
0.00775195
0.00734874
0.00699334
0.00655446
0.00616656
0.00593704
0.00556915
0.00511679
0.00493334
0.00416667
0.00366754
0.00284091
0.00165534
0.00243439
0
0.000198693
0.000392206
0.00116721
0.000594195
0.00126356
0
0
0
0.000967473
0.000482428
0.000462608
0
0
0
0.00385532
0
0
0.00156532
0
0.00250991
0
0
0
0.00171594
0.00664373
0.0148821
0
0
0.042958
0
0
0.016296
0.0497686
0.000463931
0
0.00112329
0.0176054
0
0
0
0
0
0.217635
0
0.241939
0.0049489
0.00625059
0
0
0
0.132985
0
0.00345136
0
0
0
0
0
0
0.0125018
0.00773276
0
0
0
0.00112246
0.0123417
0.0511823
0.0038027
0
0.0299371
0
0
0.0124926
0
0.0513319
0.0104386
0.0107246
0
0
0
0
0.0167806
0
0
0.0379818
0
0
0
0.0249459
0.0405718
0
0.144285
0.0904404
0.131866
0
0.150578
0
0
0
0
0
0
0
0
0
0
0
0
0
0
0
0
0
0
0
0
0
0
0.0134961
0
0
0
0.0131135
0
0
0
0
0
0
0
0
0.000627424
5.66136e-05
0
0
0.000947951
0.0003712
0
0.00238712
0.00259582
0.000902878
0.000115425
0.00636916
0.0032373
0.00231516
0.00511933
0.0046273
0.00542814
0.00618619
0.00706508
0.00737289
0.00869146
0.00979333
0.0122393
0.0143487
0.0156638
0.0168469
0.0216026
0.0273526
0.0344689
0.0431078
0.0568205
0.076881
0.0943596
0.134254
0.158526
0.209889
0.232017
0.276773
0.30527
0.410231
0.419571
0.291623
0.288479
0.361917
0.355839
0.420636
0.422447
0.421641
0.423457
0.46063
0.449717
0.488703
0.480367
0.500013
0.418548
0.417714
0.345187
0.321089
0.123804
0.231909
0.0637343
0
0
0.0720216
0
0
0
0
0
0
0
0
0
0
0
0
0
0
0
0
0
0
0
0
0
0
0
0
0
0
0
0
0
0
0
0
0
0
0
0
0
0
0
0
0
0
0
0
0
0
0
0
0
0
0
0.302155
0.426865
0.20875
0.871574
0.0550508
0
0
0
0
0
0
0
0
0
0
0
0
0
0
0
0
0
0
0
0.477055
0.0912399
0
0
0
0
0.184301
0
0
0.159689
0
0
0.0546976
0.193521
0
0
0
0.132845
0
0
0.0608209
0.3033
0.270326
0.149145
0.30465
0.134735
0.245187
0.113585
0
0
0
0
0
0
0
0
0.271793
0
0
0
0
0
0
0
0
0
0.106459
0.100427
0.184248
0.986508
0.92642
0.879808
0.72099
0
0.00201885
0.13187
0.11675
0.0773402
0.0631848
0.0626259
0.0553289
0.0434156
0.035689
0.030443
0.0254361
0.0239931
0.0218478
0.0153113
0.0109597
0.0126522
0.0151572
0.0136776
0.0108702
0.0106632
0.011534
0.0115395
0.0107442
0.010229
0.0098127
0.00948008
0.0091505
0.00888031
0.00850293
0.00803458
0.00764779
0.00727367
0.00682011
0.00616004
0.00585519
0.00535819
0.00506783
0.00493567
0.00437393
0.00407939
0.00243801
0.00181769
0.00219988
6.63201e-05
0
0.000846985
0.000881404
0.00033751
0.000994707
0.000117631
0.000476597
0
0.000511689
0.00147731
0
0.00169111
0
0
0
0
0.00555236
0
0
0.00138645
0
0.00688118
0.00560932
0
0.0104203
0.0193119
0
0
0.0117426
0.0194332
0.00834711
0
0
0.0300833
0.00101179
0
0.00235514
0.013224
0
0.0134896
0
0
0.0623256
0
0.248952
0.0104269
0.0123312
0
0
0
0
0
0.0294285
0
0.0404651
0
0
0
0
0.00434981
0.0328666
0
0
0
0
0.08875
0
0
0.0345627
0
0.0223786
0
0
0
0.0193655
0
0.0061817
0
0.00790632
0
0
0
0
0
0.037022
0
0.0348602
0
0.0477001
0.0539558
0
0.0359288
0.0520946
0
0
0.113759
0
0
0
0
0
0
0
0
0
0
0
0
0
0
0
0
0
0
0
0
0
0
0
0
0
0
0.0164417
0
0
0
0
0
0
0
0
0
0.000807137
0
0
0
0.00415428
0
0.00184627
0.00468143
0.00373504
0.00230944
0.00464385
0.0086738
0.00491789
0.00736245
0.00912158
0.00989086
0.0117139
0.0143557
0.0166279
0.0189683
0.0249301
0.0290817
0.0399772
0.0442142
0.0560385
0.0681707
0.0911207
0.116096
0.14147
0.176809
0.199558
0.221921
0.249127
0.245546
0.275129
0.288761
0.312205
0.33847
0.431963
0.442189
0.315022
0.296951
0.365792
0.366137
0.410108
0.420435