/*--------------------------------*- C++ -*----------------------------------*\
| =========                 |                                                 |
| \\      /  F ield         | OpenFOAM: The Open Source CFD Toolbox           |
|  \\    /   O peration     | Version:  v2006                                 |
|   \\  /    A nd           | Website:  www.openfoam.com                      |
|    \\/     M anipulation  |                                                 |
\*---------------------------------------------------------------------------*/
FoamFile
{
    version     2.0;
    format      ascii;
    class       volScalarField;
    location    "100";
    object      nut;
}
// * * * * * * * * * * * * * * * * * * * * * * * * * * * * * * * * * * * * * //

dimensions      [0 2 -1 0 0 0 0];


internalField   nonuniform List<scalar> 
93840
(
2.83628e-08
2.86036e-08
2.84686e-08
2.86631e-08
2.86699e-08
2.92048e-08
2.95122e-08
2.91973e-08
2.8771e-08
2.89658e-08
2.9576e-08
3.04259e-08
3.07466e-08
3.04314e-08
3.15624e-08
3.40549e-08
4.39028e-08
5.28253e-08
3.10923e-08
3.42718e-09
1.02879e-07
1.79156e-06
6.16954e-06
1.37722e-05
1.7839e-05
1.68723e-05
1.50734e-05
1.54551e-05
1.50329e-05
1.47531e-05
1.3947e-05
1.31643e-05
1.33747e-05
1.27955e-05
1.27926e-05
1.26521e-05
1.24216e-05
1.24395e-05
1.21431e-05
1.22083e-05
1.19259e-05
1.19943e-05
1.17353e-05
1.17823e-05
1.15508e-05
1.15648e-05
1.13707e-05
1.1367e-05
1.1207e-05
1.11714e-05
1.10392e-05
1.09969e-05
1.08641e-05
1.08037e-05
1.07342e-05
1.07244e-05
1.06301e-05
1.05688e-05
1.0453e-05
1.04075e-05
1.03602e-05
1.0306e-05
1.02427e-05
1.02489e-05
1.02222e-05
1.02163e-05
1.0215e-05
1.02388e-05
1.0228e-05
1.02453e-05
1.02626e-05
1.02829e-05
1.03173e-05
1.03648e-05
1.04085e-05
1.04615e-05
1.05215e-05
1.05808e-05
1.06554e-05
1.07187e-05
1.07888e-05
1.08542e-05
1.09177e-05
1.10079e-05
1.11026e-05
1.11812e-05
1.12713e-05
1.13609e-05
1.14472e-05
1.1534e-05
1.16645e-05
1.17883e-05
1.19189e-05
1.20582e-05
1.21985e-05
1.2365e-05
1.25259e-05
1.26882e-05
1.28633e-05
1.30565e-05
1.3252e-05
1.34453e-05
1.36495e-05
1.40296e-05
1.44078e-05
1.45051e-05
1.45947e-05
1.48852e-05
1.51974e-05
1.55101e-05
1.58159e-05
1.61288e-05
1.64333e-05
1.68093e-05
1.71529e-05
1.75015e-05
1.78237e-05
1.82013e-05
1.85106e-05
1.88294e-05
1.90791e-05
1.93545e-05
1.94806e-05
1.96678e-05
1.96381e-05
1.96445e-05
1.97182e-05
1.94768e-05
1.95701e-05
1.94163e-05
1.93132e-05
1.92104e-05
1.90728e-05
1.90086e-05
1.89112e-05
1.87991e-05
1.86709e-05
1.85984e-05
1.84942e-05
1.84595e-05
1.83832e-05
1.83235e-05
1.82055e-05
1.81499e-05
1.80732e-05
1.80238e-05
1.79572e-05
1.78932e-05
1.7798e-05
1.77013e-05
1.76065e-05
1.75073e-05
1.73971e-05
1.72711e-05
1.71359e-05
1.69894e-05
1.68282e-05
1.66408e-05
1.64338e-05
1.62348e-05
1.60566e-05
1.586e-05
1.56062e-05
1.53183e-05
1.50088e-05
1.46752e-05
1.42801e-05
1.37286e-05
1.26746e-05
1.04043e-05
6.48837e-06
4.64615e-06
9.53906e-06
8.98718e-06
1.39624e-06
2.97735e-08
2.56062e-06
2.79497e-06
1.46535e-08
5.1839e-08
9.31141e-08
1.45764e-08
3.90898e-07
2.08719e-07
1.26697e-08
5.15335e-07
1.4158e-06
6.17718e-08
1.13963e-13
9.62491e-06
1.66702e-05
4.09613e-06
5.15874e-06
1.74277e-05
2.49947e-05
2.81643e-05
2.90519e-05
2.97842e-05
2.99654e-05
3.03475e-05
3.02904e-05
3.02307e-05
3.00746e-05
2.99943e-05
2.98098e-05
2.96978e-05
2.94766e-05
2.93684e-05
2.91505e-05
2.90467e-05
2.88549e-05
2.87586e-05
2.85602e-05
2.84704e-05
2.82557e-05
2.81457e-05
2.79251e-05
2.78463e-05
2.76359e-05
2.75898e-05
2.74746e-05
2.7521e-05
2.73045e-05
2.72193e-05
2.69442e-05
2.68527e-05
2.66064e-05
2.65369e-05
2.62687e-05
2.61869e-05
2.60116e-05
2.61412e-05
2.60007e-05
2.61234e-05
2.60007e-05
2.60203e-05
2.5823e-05
2.58502e-05
2.56465e-05
2.57135e-05
2.54968e-05
2.56042e-05
2.5372e-05
2.55283e-05
2.53169e-05
2.54675e-05
2.5183e-05
2.55804e-05
2.51716e-05
2.54168e-05
2.51209e-05
2.50364e-05
2.26358e-05
1.77327e-05
1.33206e-05
1.30992e-05
1.2977e-05
1.28363e-05
1.30086e-05
1.31077e-05
1.30869e-05
1.29888e-05
1.2883e-05
1.27457e-05
1.26003e-05
1.24338e-05
1.22837e-05
1.20717e-05
1.17045e-05
1.13699e-05
1.12597e-05
1.11082e-05
1.07404e-05
1.03149e-05
1.00752e-05
9.88346e-06
9.60341e-06
9.24912e-06
8.93081e-06
8.6231e-06
8.31389e-06
7.99612e-06
7.67622e-06
7.35487e-06
7.03114e-06
6.71177e-06
6.39656e-06
6.07958e-06
5.74362e-06
5.3775e-06
4.97628e-06
4.51592e-06
4.00213e-06
3.43175e-06
2.8047e-06
2.29249e-06
1.88437e-06
1.45105e-06
9.56823e-07
2.03704e-07
2.33872e-09
5.86412e-09
5.14024e-09
3.36654e-09
3.26719e-09
3.58893e-09
3.99795e-09
4.4891e-09
7.39684e-09
8.86334e-09
1.18542e-08
1.39006e-08
1.51172e-08
1.25788e-08
9.48236e-09
7.31682e-09
6.23383e-09
6.23758e-09
6.07096e-09
5.4617e-09
4.59136e-09
5.19232e-09
4.12371e-09
3.84387e-09
3.14347e-09
2.64378e-09
2.75119e-09
3.34244e-09
4.24515e-09
1.72709e-08
9.2931e-08
5.0349e-07
1.03939e-06
1.79687e-06
2.88502e-06
3.02496e-06
9.21437e-06
1.40569e-05
1.71252e-05
1.85892e-05
1.91366e-05
1.73123e-05
1.50124e-05
1.68576e-05
1.54006e-05
8.05514e-06
2.46839e-06
5.2727e-07
9.94291e-08
2.20279e-08
1.34942e-08
1.94546e-08
2.50572e-08
2.91721e-08
2.98451e-08
3.0772e-08
3.0277e-08
2.95898e-08
2.89916e-08
2.87269e-08
2.9217e-08
2.97325e-08
2.9263e-08
2.8597e-08
2.86361e-08
2.84495e-08
2.86056e-08
2.83011e-08
2.83662e-08
2.86042e-08
2.83944e-08
2.85939e-08
2.86084e-08
2.92548e-08
2.95336e-08
2.92915e-08
2.87471e-08
2.9009e-08
2.95564e-08
3.04275e-08
3.08171e-08
3.0167e-08
3.09745e-08
3.31589e-08
3.74531e-08
3.94739e-08
3.78169e-08
3.62449e-08
1.71909e-08
5.74321e-07
4.09375e-06
1.07781e-05
1.66108e-05
1.81424e-05
1.78119e-05
1.64453e-05
1.55171e-05
1.47441e-05
1.40699e-05
1.36736e-05
1.34206e-05
1.33106e-05
1.35095e-05
1.31744e-05
1.35705e-05
1.30776e-05
1.35771e-05
1.30465e-05
1.35522e-05
1.30324e-05
1.35295e-05
1.30391e-05
1.35076e-05
1.30501e-05
1.35034e-05
1.30544e-05
1.35005e-05
1.30752e-05
1.34739e-05
1.30999e-05
1.34304e-05
1.30981e-05
1.33536e-05
1.31101e-05
1.33365e-05
1.31516e-05
1.33297e-05
1.31877e-05
1.33764e-05
1.32813e-05
1.34626e-05
1.34409e-05
1.36922e-05
1.37162e-05
1.39602e-05
1.40238e-05
1.42204e-05
1.428e-05
1.44732e-05
1.45931e-05
1.47997e-05
1.49715e-05
1.52167e-05
1.54093e-05
1.56576e-05
1.58754e-05
1.60908e-05
1.627e-05
1.65403e-05
1.66996e-05
1.6844e-05
1.70135e-05
1.72279e-05
1.73545e-05
1.7489e-05
1.76818e-05
1.78037e-05
1.79081e-05
1.80714e-05
1.81688e-05
1.82978e-05
1.84133e-05
1.85018e-05
1.86517e-05
1.87664e-05
1.88466e-05
1.89503e-05
1.90622e-05
1.91424e-05
1.9234e-05
1.92836e-05
1.93659e-05
1.95217e-05
1.95938e-05
1.96224e-05
1.96516e-05
1.96972e-05
1.97433e-05
1.97529e-05
1.97807e-05
1.97637e-05
1.97511e-05
1.97198e-05
1.9685e-05
1.96191e-05
1.95603e-05
1.94671e-05
1.93777e-05
1.92533e-05
1.91324e-05
1.8962e-05
1.88243e-05
1.86118e-05
1.84741e-05
1.8245e-05
1.8081e-05
1.78848e-05
1.7667e-05
1.74895e-05
1.72799e-05
1.70961e-05
1.6901e-05
1.66972e-05
1.65096e-05
1.6315e-05
1.61347e-05
1.59372e-05
1.57566e-05
1.55459e-05
1.53586e-05
1.51553e-05
1.49679e-05
1.47506e-05
1.45484e-05
1.43133e-05
1.40876e-05
1.3835e-05
1.36007e-05
1.33339e-05
1.30596e-05
1.27499e-05
1.24235e-05
1.20571e-05
1.16521e-05
1.11726e-05
1.06239e-05
1.00147e-05
9.41597e-06
8.81493e-06
8.15258e-06
7.20332e-06
5.8921e-06
4.62756e-06
4.12611e-06
4.22811e-06
3.91192e-06
2.53296e-06
5.80443e-07
1.27938e-06
1.90076e-08
4.6562e-07
7.14562e-08
1.12239e-09
1.05681e-09
3.34945e-09
2.12605e-09
4.01339e-09
6.35766e-08
3.19069e-08
1.71153e-07
2.46304e-08
3.03926e-08
4.3824e-08
2.36589e-08
1.42483e-07
8.2382e-08
5.58217e-16
5.66332e-07
2.83738e-07
1.47767e-07
2.90945e-15
1.30879e-06
5.28155e-06
6.78223e-06
5.8055e-06
6.0189e-06
8.55095e-06
1.14211e-05
1.31434e-05
1.44081e-05
1.57477e-05
1.70923e-05
1.80366e-05
1.8767e-05
1.94034e-05
2.00805e-05
2.06569e-05
2.12047e-05
2.159e-05
2.19303e-05
2.21639e-05
2.24119e-05
2.25768e-05
2.27854e-05
2.29361e-05
2.31203e-05
2.3263e-05
2.34395e-05
2.35701e-05
2.37404e-05
2.38593e-05
2.40264e-05
2.41253e-05
2.42976e-05
2.43889e-05
2.45396e-05
2.46295e-05
2.47552e-05
2.48339e-05
2.49697e-05
2.50176e-05
2.52251e-05
2.52515e-05
2.54714e-05
2.55762e-05
2.56839e-05
2.58881e-05
2.59632e-05
2.6067e-05
2.62952e-05
2.62969e-05
2.64295e-05
2.66558e-05
2.66349e-05
2.69055e-05
2.66704e-05
2.73701e-05
2.71164e-05
2.69198e-05
2.78585e-05
2.69357e-05
2.62058e-05
2.76179e-05
2.95971e-05
2.98043e-05
2.93231e-05
2.95673e-05
2.90852e-05
2.8161e-05
2.72239e-05
2.6436e-05
2.57665e-05
2.52422e-05
2.4806e-05
2.44456e-05
2.40596e-05
2.36991e-05
2.34643e-05
2.3162e-05
2.27389e-05
2.22157e-05
2.18134e-05
2.14791e-05
2.11199e-05
2.07169e-05
2.03692e-05
2.00728e-05
1.97477e-05
1.94361e-05
1.91074e-05
1.88035e-05
1.84827e-05
1.81995e-05
1.79059e-05
1.7598e-05
1.72469e-05
1.68054e-05
1.61657e-05
1.53353e-05
1.41191e-05
1.26458e-05
1.07486e-05
8.57416e-06
7.28277e-06
6.72732e-06
6.21426e-06
6.05519e-06
5.36722e-06
3.91202e-06
2.61254e-06
1.46672e-06
8.09419e-07
5.93936e-07
6.60723e-07
6.00143e-07
6.36469e-07
8.4832e-07
9.13303e-07
1.04614e-06
1.17958e-06
1.07776e-06
7.75714e-07
4.15895e-07
2.82216e-07
2.59088e-07
3.95859e-07
4.66993e-07
4.94038e-07
5.0742e-07
6.59968e-07
5.82534e-07
5.6618e-07
5.05548e-07
4.15456e-07
4.16485e-07
4.20191e-07
5.1073e-07
1.21172e-06
2.61491e-06
4.3712e-06
6.29969e-06
8.55608e-06
1.23826e-05
1.71298e-05
1.96103e-05
2.25841e-05
2.60776e-05
3.00959e-05
2.92146e-05
2.76654e-05
2.18497e-05
1.63694e-05
1.58782e-05
1.01689e-05
3.44922e-06
5.35096e-07
1.03041e-07
5.03357e-08
3.38542e-08
3.15932e-08
3.11839e-08
3.06805e-08
3.00475e-08
3.06965e-08
3.03296e-08
2.9592e-08
2.8999e-08
2.86995e-08
2.92542e-08
2.96161e-08
2.92936e-08
2.85895e-08
2.87498e-08
2.84779e-08
2.86208e-08
2.83528e-08
2.83994e-08
2.86259e-08
2.85073e-08
2.86933e-08
2.86004e-08
2.94281e-08
2.96725e-08
2.93732e-08
2.86596e-08
2.90486e-08
2.96622e-08
3.04303e-08
3.06995e-08
2.99687e-08
2.96679e-08
2.7189e-08
2.11158e-08
1.53606e-08
2.30526e-08
8.08089e-08
1.40836e-07
2.58208e-07
2.40426e-06
7.72582e-06
1.39701e-05
1.69432e-05
1.86646e-05
1.92006e-05
1.86368e-05
1.83664e-05
1.7853e-05
1.75781e-05
1.73999e-05
1.73228e-05
1.73573e-05
1.72762e-05
1.73749e-05
1.72816e-05
1.74035e-05
1.73121e-05
1.74477e-05
1.73579e-05
1.75128e-05
1.74177e-05
1.75892e-05
1.74899e-05
1.76749e-05
1.75518e-05
1.77565e-05
1.75947e-05
1.77998e-05
1.7618e-05
1.77969e-05
1.76073e-05
1.77717e-05
1.76459e-05
1.78408e-05
1.77649e-05
1.79463e-05
1.79224e-05
1.81438e-05
1.81747e-05
1.8454e-05
1.86325e-05
1.90363e-05
1.92321e-05
1.96342e-05
1.9826e-05
2.01534e-05
2.0349e-05
2.07277e-05
2.10318e-05
2.14444e-05
2.18487e-05
2.23394e-05
2.27682e-05
2.32712e-05
2.37164e-05
2.41184e-05
2.44925e-05
2.50167e-05
2.52629e-05
2.54912e-05
2.58069e-05
2.616e-05
2.62901e-05
2.64792e-05
2.67652e-05
2.68474e-05
2.69186e-05
2.71069e-05
2.71045e-05
2.71866e-05
2.72129e-05
2.71874e-05
2.7289e-05
2.72794e-05
2.71814e-05
2.71571e-05
2.71131e-05
2.69941e-05
2.68974e-05
2.67217e-05
2.66035e-05
2.66222e-05
2.64504e-05
2.6219e-05
2.59547e-05
2.57134e-05
2.54568e-05
2.51324e-05
2.484e-05
2.44513e-05
2.40659e-05
2.36713e-05
2.32527e-05
2.28084e-05
2.23714e-05
2.19276e-05
2.14795e-05
2.10527e-05
2.06097e-05
2.01971e-05
1.9793e-05
1.93852e-05
1.90149e-05
1.85791e-05
1.82519e-05
1.78014e-05
1.74506e-05
1.70464e-05
1.66682e-05
1.62745e-05
1.58807e-05
1.54697e-05
1.50839e-05
1.46722e-05
1.42692e-05
1.38365e-05
1.34199e-05
1.29626e-05
1.25382e-05
1.20815e-05
1.16235e-05
1.11186e-05
1.06151e-05
1.0046e-05
9.46569e-06
8.82511e-06
8.1991e-06
7.50677e-06
6.8115e-06
6.06527e-06
5.31638e-06
4.54655e-06
3.87198e-06
3.26891e-06
2.67087e-06
1.95322e-06
1.35924e-06
1.10452e-06
9.66526e-07
4.31793e-07
7.9001e-08
6.21361e-08
8.76839e-08
3.48e-08
1.86489e-08
2.06446e-08
5.37305e-08
9.01974e-08
6.72998e-08
4.41957e-08
1.23296e-07
1.21988e-07
1.10833e-07
7.08471e-08
7.61475e-08
9.27958e-08
6.0322e-08
5.44391e-08
3.28322e-08
8.74166e-08
5.77766e-09
1.04513e-07
4.61056e-08
4.08368e-08
3.37508e-08
6.51528e-08
2.80901e-08
5.687e-09
4.28555e-08
7.87394e-08
7.30516e-10
2.96446e-07
2.61503e-07
2.46165e-07
4.67267e-08
8.44269e-07
1.68009e-06
1.30056e-06
1.73575e-06
2.84023e-06
3.88697e-06
4.67954e-06
5.3141e-06
5.93613e-06
6.98285e-06
8.35314e-06
9.86247e-06
1.11783e-05
1.23382e-05
1.3364e-05
1.4347e-05
1.52202e-05
1.60849e-05
1.68866e-05
1.76624e-05
1.8392e-05
1.90858e-05
1.97569e-05
2.03623e-05
2.08951e-05
2.14351e-05
2.19072e-05
2.24859e-05
2.29764e-05
2.34977e-05
2.39747e-05
2.44293e-05
2.49001e-05
2.54196e-05
2.57312e-05
2.63695e-05
2.65832e-05
2.71568e-05
2.75854e-05
2.78663e-05
2.85354e-05
2.87938e-05
2.91775e-05
2.98054e-05
2.99891e-05
3.03312e-05
3.10272e-05
3.10572e-05
3.17259e-05
3.14556e-05
3.27225e-05
3.28384e-05
3.19805e-05
3.40105e-05
3.36751e-05
3.22479e-05
3.57511e-05
3.99927e-05
4.19572e-05
4.19671e-05
4.32118e-05
4.34055e-05
4.27712e-05
4.18991e-05
4.10855e-05
4.03702e-05
3.98574e-05
3.9488e-05
3.92415e-05
3.89607e-05
3.86367e-05
3.85286e-05
3.83379e-05
3.78908e-05
3.70821e-05
3.63943e-05
3.59669e-05
3.55683e-05
3.50613e-05
3.46054e-05
3.43012e-05
3.39404e-05
3.36273e-05
3.32614e-05
3.29538e-05
3.26091e-05
3.23589e-05
3.20813e-05
3.17532e-05
3.13025e-05
3.05739e-05
2.93001e-05
2.74429e-05
2.47392e-05
2.15945e-05
1.80908e-05
1.42945e-05
1.11725e-05
9.60811e-06
8.64003e-06
8.24674e-06
7.92751e-06
7.11074e-06
5.80665e-06
3.5774e-06
1.73401e-06
1.26761e-06
1.61936e-06
1.76231e-06
1.80614e-06
2.21991e-06
2.32473e-06
2.6138e-06
3.05987e-06
3.16597e-06
2.7209e-06
1.67808e-06
8.31213e-07
6.0663e-07
8.87667e-07
9.28995e-07
8.07809e-07
8.13687e-07
9.78648e-07
8.33959e-07
8.81049e-07
7.56196e-07
5.96204e-07
4.38329e-07
3.62089e-07
1.12779e-06
2.77059e-06
4.91565e-06
7.0651e-06
9.12838e-06
1.07247e-05
1.28365e-05
1.59957e-05
2.04089e-05
2.45073e-05
2.96097e-05
3.49292e-05
3.54884e-05
3.65382e-05
3.73126e-05
2.4963e-05
1.82929e-05
1.25772e-05
5.01444e-06
1.00341e-06
3.83884e-08
3.62416e-08
4.57484e-08
3.62276e-08
3.06563e-08
3.04248e-08
3.02199e-08
3.07622e-08
3.02369e-08
2.95783e-08
2.90133e-08
2.86328e-08
2.93004e-08
2.97724e-08
2.92013e-08
2.86001e-08
2.8705e-08
2.84642e-08
2.86057e-08
2.8361e-08
2.82882e-08
2.85476e-08
2.84019e-08
2.86625e-08
2.85641e-08
2.91733e-08
2.9741e-08
2.93663e-08
2.8755e-08
2.90117e-08
2.95533e-08
3.03331e-08
3.06965e-08
3.00075e-08
3.01441e-08
3.05518e-08
3.28489e-08
3.53957e-08
2.9464e-08
6.61679e-09
1.36168e-08
2.0403e-07
1.36696e-06
5.36749e-06
1.12889e-05
1.47551e-05
1.67835e-05
1.81454e-05
1.85961e-05
1.88705e-05
1.8867e-05
1.8902e-05
1.88935e-05
1.89109e-05
1.89556e-05
1.89684e-05
1.90454e-05
1.90506e-05
1.91476e-05
1.91424e-05
1.92666e-05
1.92542e-05
1.93895e-05
1.93817e-05
1.95149e-05
1.95166e-05
1.96354e-05
1.96276e-05
1.97324e-05
1.96961e-05
1.97906e-05
1.97353e-05
1.98194e-05
1.97726e-05
1.98724e-05
1.98794e-05
2.00375e-05
2.01041e-05
2.02848e-05
2.0413e-05
2.0645e-05
2.08519e-05
2.12161e-05
2.15919e-05
2.20482e-05
2.23873e-05
2.28349e-05
2.31268e-05
2.35276e-05
2.3877e-05
2.43853e-05
2.48494e-05
2.54018e-05
2.59952e-05
2.66427e-05
2.72498e-05
2.79066e-05
2.84889e-05
2.9e-05
2.95224e-05
3.01743e-05
3.0436e-05
3.07227e-05
3.11434e-05
3.15294e-05
3.16257e-05
3.18481e-05
3.21638e-05
3.21634e-05
3.22084e-05
3.2374e-05
3.22476e-05
3.22664e-05
3.21888e-05
3.20527e-05
3.20814e-05
3.19156e-05
3.16546e-05
3.15089e-05
3.12996e-05
3.09974e-05
3.07363e-05
3.03803e-05
3.0073e-05
2.98718e-05
2.94508e-05
2.90418e-05
2.85385e-05
2.80476e-05
2.75275e-05
2.69279e-05
2.63717e-05
2.56917e-05
2.50179e-05
2.43431e-05
2.36317e-05
2.29187e-05
2.22077e-05
2.15194e-05
2.08196e-05
2.01931e-05
1.95138e-05
1.89367e-05
1.8321e-05
1.77693e-05
1.7207e-05
1.66282e-05
1.61258e-05
1.55214e-05
1.50057e-05
1.4421e-05
1.38939e-05
1.33062e-05
1.27599e-05
1.21448e-05
1.15959e-05
1.09757e-05
1.03825e-05
9.71119e-06
9.05656e-06
8.31248e-06
7.60087e-06
6.82857e-06
6.05806e-06
5.26302e-06
4.52511e-06
3.77924e-06
3.08772e-06
2.4119e-06
1.8953e-06
1.41659e-06
9.79527e-07
5.66585e-07
3.66452e-07
1.90248e-07
9.49194e-08
5.72028e-08
6.39535e-08
3.08492e-08
1.77168e-08
2.43485e-08
3.57876e-08
2.33994e-08
3.2133e-08
2.59104e-08
2.38301e-08
2.94161e-08
4.20292e-08
2.6683e-08
3.85334e-08
2.88923e-08
3.90789e-08
2.83179e-08
2.16735e-08
1.01015e-08
2.15363e-08
2.34649e-08
4.49795e-08
2.66598e-08
2.77764e-08
4.60287e-08
1.01693e-07
2.53204e-08
5.46464e-08
2.69184e-07
6.22942e-08
2.07209e-08
1.28723e-08
1.65372e-08
2.68105e-08
1.34663e-08
2.20029e-08
2.14451e-08
3.67621e-09
5.33389e-09
2.47782e-08
5.69202e-09
4.15626e-09
2.16984e-08
3.71153e-08
9.28523e-09
1.51828e-08
3.2292e-08
4.32607e-08
4.8135e-08
1.42398e-07
1.44248e-07
2.36314e-07
6.44216e-07
1.41453e-06
1.94456e-06
2.61362e-06
3.38981e-06
4.19725e-06
5.03335e-06
6.02515e-06
7.10651e-06
8.26309e-06
9.53408e-06
1.08182e-05
1.21767e-05
1.33698e-05
1.44153e-05
1.53993e-05
1.62567e-05
1.72413e-05
1.81128e-05
1.89822e-05
1.98048e-05
2.05537e-05
2.13575e-05
2.22599e-05
2.28337e-05
2.38914e-05
2.43297e-05
2.52054e-05
2.59546e-05
2.6383e-05
2.74207e-05
2.7873e-05
2.84672e-05
2.94203e-05
2.98041e-05
3.03098e-05
3.13719e-05
3.1565e-05
3.24358e-05
3.23738e-05
3.38176e-05
3.45243e-05
3.31503e-05
3.59337e-05
3.61612e-05
3.5299e-05
3.93614e-05
4.46936e-05
4.78141e-05
4.83393e-05
4.98398e-05
5.03018e-05
5.00241e-05
4.9489e-05
4.89219e-05
4.83816e-05
4.80334e-05
4.7848e-05
4.77938e-05
4.77382e-05
4.76335e-05
4.77125e-05
4.76029e-05
4.72224e-05
4.64035e-05
4.56051e-05
4.50691e-05
4.46175e-05
4.40999e-05
4.36358e-05
4.33737e-05
4.30305e-05
4.27577e-05
4.24164e-05
4.21473e-05
4.18303e-05
4.16412e-05
4.14465e-05
4.11689e-05
4.07533e-05
3.99499e-05
3.8474e-05
3.61966e-05
3.28455e-05
2.88974e-05
2.45007e-05
1.99572e-05
1.54219e-05
1.23781e-05
1.06658e-05
9.69549e-06
9.45082e-06
9.28101e-06
8.75368e-06
6.85723e-06
4.24088e-06
2.38084e-06
1.94963e-06
2.0228e-06
1.99979e-06
2.68564e-06
2.94716e-06
3.30532e-06
4.07546e-06
4.6776e-06
4.66507e-06
3.55743e-06
1.91212e-06
8.57877e-07
1.14926e-06
1.28562e-06
9.93687e-07
8.71385e-07
1.08271e-06
8.29929e-07
8.94569e-07
8.51291e-07
7.14251e-07
6.88393e-07
7.60505e-07
1.57412e-06
3.01474e-06
5.00937e-06
7.45746e-06
1.00427e-05
1.21576e-05
1.40638e-05
1.55443e-05
1.93163e-05
2.33341e-05
2.88798e-05
3.44983e-05
3.76522e-05
4.23451e-05
4.83552e-05
3.88734e-05
2.31642e-05
1.46654e-05
6.53034e-06
1.80096e-06
1.65519e-07
3.34726e-08
2.58571e-08
2.73998e-08
2.79454e-08
2.94573e-08
2.9528e-08
3.08336e-08
3.04537e-08
2.95697e-08
2.90474e-08
2.86854e-08
2.92605e-08
2.97301e-08
2.93524e-08
2.86551e-08
2.86886e-08
2.85053e-08
2.86238e-08
2.83771e-08
2.84389e-08
2.86801e-08
2.85135e-08
2.87033e-08
2.87193e-08
2.94167e-08
2.97104e-08
2.93586e-08
2.88186e-08
2.9048e-08
2.97033e-08
3.02994e-08
3.05592e-08
2.98169e-08
2.93479e-08
2.83926e-08
3.08131e-08
3.98104e-08
4.40484e-08
2.04939e-08
4.94739e-09
1.09147e-08
3.60555e-07
3.08915e-06
8.53302e-06
1.28906e-05
1.50038e-05
1.67594e-05
1.75748e-05
1.82202e-05
1.84399e-05
1.87743e-05
1.8861e-05
1.90422e-05
1.91174e-05
1.92411e-05
1.93134e-05
1.94206e-05
1.94918e-05
1.95896e-05
1.96757e-05
1.97609e-05
1.98522e-05
1.99357e-05
2.00165e-05
2.01013e-05
2.01577e-05
2.02335e-05
2.02633e-05
2.0329e-05
2.03501e-05
2.042e-05
2.04509e-05
2.05552e-05
2.06269e-05
2.07876e-05
2.09344e-05
2.11507e-05
2.13478e-05
2.16344e-05
2.19057e-05
2.23077e-05
2.27515e-05
2.32843e-05
2.37371e-05
2.4176e-05
2.46273e-05
2.50174e-05
2.54972e-05
2.6015e-05
2.66298e-05
2.72376e-05
2.79041e-05
2.86718e-05
2.94313e-05
3.01849e-05
3.09358e-05
3.16082e-05
3.21998e-05
3.28434e-05
3.35357e-05
3.37763e-05
3.41163e-05
3.46118e-05
3.49558e-05
3.50005e-05
3.52463e-05
3.55434e-05
3.54206e-05
3.54405e-05
3.55361e-05
3.52575e-05
3.5194e-05
3.49902e-05
3.47297e-05
3.46557e-05
3.42944e-05
3.38659e-05
3.35871e-05
3.31845e-05
3.26929e-05
3.226e-05
3.17126e-05
3.11884e-05
3.07211e-05
3.00554e-05
2.94902e-05
2.87455e-05
2.80147e-05
2.72359e-05
2.63833e-05
2.55818e-05
2.46407e-05
2.3712e-05
2.27961e-05
2.18327e-05
2.09024e-05
1.99603e-05
1.90797e-05
1.81689e-05
1.73877e-05
1.64917e-05
1.57865e-05
1.49599e-05
1.42931e-05
1.35367e-05
1.28371e-05
1.21499e-05
1.14196e-05
1.07036e-05
9.95111e-06
9.2287e-06
8.40869e-06
7.64443e-06
6.75175e-06
5.9989e-06
5.13997e-06
4.42689e-06
3.63448e-06
3.00433e-06
2.31039e-06
1.81639e-06
1.27077e-06
8.54914e-07
4.63923e-07
3.07356e-07
1.5528e-07
1.16478e-07
5.15301e-08
7.09318e-08
4.85038e-08
5.52016e-08
3.26926e-08
4.50222e-08
3.24727e-08
4.39953e-08
3.60205e-08
5.00523e-08
4.15883e-08
6.18062e-08
4.80227e-08
6.2503e-08
4.50725e-08
5.76093e-08
4.02238e-08
6.00589e-08
4.6161e-08
6.2078e-08
4.79545e-08
5.1253e-08
3.61608e-08
4.78951e-08
4.79154e-08
7.59878e-08
8.7979e-08
8.30055e-08
6.68953e-08
4.10912e-08
6.85946e-08
6.95079e-08
4.04125e-08
3.23408e-08
4.35551e-08
5.18546e-08
2.47786e-08
2.29123e-09
3.16076e-08
4.28508e-08
3.20835e-08
3.66051e-08
3.30531e-08
4.13598e-08
4.30375e-08
3.48091e-08
3.83212e-08
4.45126e-08
2.88745e-08
2.61655e-08
2.23151e-08
2.4292e-08
2.55397e-08
2.17656e-08
3.24208e-08
2.16941e-08
2.89555e-08
2.20898e-08
2.61893e-08
1.68261e-08
3.08246e-08
3.07963e-08
5.2837e-08
4.16575e-08
1.07318e-07
1.06896e-07
1.67763e-07
2.21198e-07
6.51654e-07
8.61775e-07
1.5629e-06
2.19141e-06
3.28559e-06
4.26613e-06
5.25484e-06
6.23705e-06
7.22834e-06
8.59053e-06
9.92292e-06
1.12312e-05
1.24857e-05
1.36152e-05
1.48021e-05
1.61337e-05
1.70056e-05
1.84703e-05
1.91824e-05
2.03284e-05
2.1444e-05
2.20359e-05
2.34194e-05
2.41053e-05
2.49048e-05
2.61348e-05
2.67749e-05
2.74258e-05
2.88197e-05
2.92409e-05
3.02752e-05
3.05056e-05
3.20494e-05
3.32606e-05
3.18403e-05
3.45963e-05
3.55297e-05
3.57393e-05
4.03438e-05
4.60933e-05
4.99996e-05
5.10548e-05
5.25781e-05
5.3089e-05
5.31569e-05
5.31054e-05
5.29617e-05
5.27489e-05
5.26753e-05
5.27685e-05
5.29829e-05
5.32355e-05
5.34614e-05
5.38298e-05
5.38576e-05
5.35997e-05
5.2903e-05
5.21177e-05
5.15097e-05
5.10046e-05
5.05056e-05
5.00781e-05
4.99011e-05
4.96261e-05
4.94303e-05
4.9158e-05
4.89638e-05
4.87121e-05
4.85996e-05
4.85297e-05
4.83519e-05
4.80582e-05
4.73162e-05
4.58941e-05
4.35872e-05
4.00534e-05
3.58193e-05
3.08593e-05
2.59447e-05
2.06939e-05
1.60477e-05
1.31347e-05
1.11802e-05
1.03586e-05
1.04746e-05
1.0762e-05
9.84286e-06
7.6416e-06
4.99443e-06
2.90656e-06
2.54532e-06
2.08446e-06
2.48675e-06
2.89505e-06
3.27799e-06
4.22661e-06
5.37888e-06
6.16921e-06
5.9354e-06
4.40144e-06
2.00823e-06
1.40647e-06
1.63945e-06
1.28831e-06
9.10412e-07
1.17026e-06
9.01445e-07
9.06708e-07
9.41677e-07
8.48798e-07
8.94409e-07
9.73077e-07
1.33492e-06
2.09625e-06
3.50813e-06
5.74706e-06
8.60178e-06
1.12092e-05
1.40754e-05
1.60325e-05
1.83796e-05
2.143e-05
2.65762e-05
3.20636e-05
3.72781e-05
4.48258e-05
5.30362e-05
5.233e-05
3.29078e-05
1.77896e-05
7.84879e-06
2.42872e-06
3.79973e-07
4.34414e-08
1.88917e-08
2.36082e-08
2.93326e-08
3.0768e-08
3.01189e-08
3.0847e-08
3.04077e-08
2.9471e-08
2.90957e-08
2.86944e-08
2.9285e-08
2.97442e-08
2.93685e-08
2.86484e-08
2.86382e-08
2.84483e-08
2.86022e-08
2.83672e-08
2.83322e-08
2.8521e-08
2.83673e-08
2.85783e-08
2.85413e-08
2.92374e-08
2.96337e-08
2.93134e-08
2.86445e-08
2.88397e-08
2.94907e-08
3.0237e-08
3.04514e-08
3.01406e-08
3.06139e-08
3.01204e-08
3.02649e-08
2.93249e-08
4.23286e-08
1.17474e-07
1.57844e-07
5.19306e-08
8.99743e-08
1.22575e-06
5.08503e-06
9.87371e-06
1.24841e-05
1.43955e-05
1.56431e-05
1.64229e-05
1.69989e-05
1.73748e-05
1.7685e-05
1.79219e-05
1.8108e-05
1.82906e-05
1.84128e-05
1.85789e-05
1.86651e-05
1.88254e-05
1.88992e-05
1.90459e-05
1.91137e-05
1.92539e-05
1.93011e-05
1.94402e-05
1.94604e-05
1.96017e-05
1.96026e-05
1.97647e-05
1.977e-05
1.99663e-05
1.99988e-05
2.02496e-05
2.03348e-05
2.064e-05
2.08035e-05
2.11534e-05
2.13978e-05
2.18262e-05
2.21745e-05
2.27376e-05
2.32405e-05
2.38407e-05
2.42583e-05
2.47542e-05
2.52143e-05
2.57123e-05
2.62955e-05
2.69685e-05
2.76591e-05
2.8388e-05
2.91506e-05
3.00708e-05
3.08966e-05
3.17567e-05
3.25455e-05
3.32751e-05
3.39257e-05
3.46461e-05
3.52993e-05
3.55068e-05
3.58959e-05
3.6424e-05
3.66617e-05
3.66553e-05
3.69116e-05
3.71399e-05
3.68678e-05
3.68657e-05
3.68444e-05
3.63961e-05
3.62384e-05
3.58933e-05
3.54968e-05
3.52933e-05
3.47096e-05
3.41194e-05
3.36988e-05
3.30825e-05
3.24044e-05
3.17933e-05
3.10445e-05
3.02868e-05
2.95386e-05
2.86523e-05
2.79491e-05
2.69702e-05
2.6025e-05
2.5005e-05
2.39349e-05
2.29169e-05
2.17527e-05
2.06091e-05
1.94972e-05
1.83236e-05
1.72215e-05
1.60811e-05
1.50484e-05
1.39531e-05
1.30487e-05
1.19456e-05
1.11257e-05
1.00638e-05
9.26908e-06
8.25234e-06
7.388e-06
6.4521e-06
5.58062e-06
4.67593e-06
3.8773e-06
3.14275e-06
2.44146e-06
1.89085e-06
1.25949e-06
9.28692e-07
4.5128e-07
3.53558e-07
1.21346e-07
1.28351e-07
3.80818e-08
7.16232e-08
2.69826e-08
5.38375e-08
2.53567e-08
4.95545e-08
2.24681e-08
4.5713e-08
2.11258e-08
3.92843e-08
1.99863e-08
3.55523e-08
2.40346e-08
4.03616e-08
2.75105e-08
4.02854e-08
2.62006e-08
3.54675e-08
2.41053e-08
3.17754e-08
2.2418e-08
2.74941e-08
2.24738e-08
3.17286e-08
3.03582e-08
3.4238e-08
2.76343e-08
2.79063e-08
2.85046e-08
3.42228e-08
4.31589e-08
4.04996e-08
4.10921e-08
2.58547e-08
2.49563e-08
1.89128e-08
3.45824e-08
3.59733e-08
3.11648e-08
3.4491e-08
4.53615e-08
8.57364e-08
5.35145e-08
8.31972e-08
1.0739e-07
2.87565e-08
1.09526e-07
7.60651e-08
6.023e-08
4.7251e-08
2.76831e-08
2.38957e-08
1.57395e-08
1.42452e-08
1.18252e-08
1.37108e-08
1.2103e-08
1.39145e-08
1.18287e-08
1.17776e-08
1.10388e-08
1.02755e-08
1.17972e-08
1.14564e-08
1.27003e-08
1.45035e-08
1.45904e-08
1.21017e-08
1.69573e-08
7.76588e-09
2.01512e-08
4.20935e-09
2.75548e-08
6.11552e-09
5.07399e-08
4.39448e-09
7.91605e-08
5.32285e-09
7.98339e-08
1.16488e-08
1.09734e-07
1.05386e-07
2.32583e-07
5.05344e-07
6.57023e-07
1.20605e-06
1.99458e-06
2.88519e-06
3.75611e-06
4.52701e-06
5.61129e-06
7.18875e-06
8.28789e-06
1.0184e-05
1.1282e-05
1.27598e-05
1.43727e-05
1.52297e-05
1.69701e-05
1.7955e-05
1.89779e-05
2.0433e-05
2.13866e-05
2.21973e-05
2.38751e-05
2.45708e-05
2.57466e-05
2.63198e-05
2.79434e-05
2.95118e-05
2.83915e-05
3.08224e-05
3.23882e-05
3.39761e-05
3.92742e-05
4.49786e-05
4.92314e-05
5.07099e-05
5.21219e-05
5.24917e-05
5.28221e-05
5.3315e-05
5.3715e-05
5.395e-05
5.4237e-05
5.46819e-05
5.52292e-05
5.58544e-05
5.64881e-05
5.72397e-05
5.74829e-05
5.74043e-05
5.6932e-05
5.6272e-05
5.56513e-05
5.51081e-05
5.46484e-05
5.42852e-05
5.42246e-05
5.40665e-05
5.39862e-05
5.38258e-05
5.3743e-05
5.35967e-05
5.35745e-05
5.36609e-05
5.36238e-05
5.3519e-05
5.29466e-05
5.17431e-05
4.96939e-05
4.63229e-05
4.22233e-05
3.7087e-05
3.19301e-05
2.6573e-05
2.09341e-05
1.66221e-05
1.33828e-05
1.12987e-05
1.09172e-05
1.15577e-05
1.16872e-05
1.04886e-05
8.43189e-06
5.51146e-06
3.94043e-06
2.54419e-06
2.25389e-06
2.61783e-06
2.42568e-06
3.09691e-06
4.69581e-06
6.28311e-06
7.28241e-06
7.21412e-06
5.5099e-06
3.21605e-06
2.20972e-06
1.90193e-06
1.37427e-06
1.32713e-06
1.20659e-06
1.0956e-06
9.91592e-07
8.70944e-07
8.75571e-07
8.96449e-07
1.11958e-06
1.33126e-06
1.68811e-06
2.74548e-06
5.32191e-06
8.22296e-06
1.20963e-05
1.48687e-05
1.76372e-05
1.99911e-05
2.33682e-05
2.85315e-05
3.45223e-05
4.32963e-05
5.24996e-05
6.0783e-05
4.64303e-05
2.44164e-05
9.92475e-06
3.01298e-06
4.27497e-07
4.32201e-08
3.34505e-08
3.32846e-08
3.02659e-08
3.02344e-08
2.98821e-08
3.07847e-08
3.04371e-08
2.9541e-08
2.90578e-08
2.87636e-08
2.92386e-08
2.96031e-08
2.94233e-08
2.86617e-08
2.86759e-08
2.84259e-08
2.86711e-08
2.83533e-08
2.83541e-08
2.86981e-08
2.85053e-08
2.8795e-08
2.86672e-08
2.93158e-08
2.96654e-08
2.92143e-08
2.86085e-08
2.885e-08
2.96062e-08
3.01714e-08
3.05676e-08
3.00767e-08
3.03766e-08
3.04469e-08
2.68048e-08
1.51831e-08
7.03596e-09
7.90387e-09
2.03676e-08
2.18392e-08
1.53921e-08
2.94871e-07
2.60794e-06
6.67612e-06
9.56691e-06
1.14775e-05
1.29399e-05
1.38603e-05
1.45705e-05
1.51003e-05
1.54869e-05
1.58482e-05
1.60744e-05
1.63554e-05
1.64906e-05
1.67332e-05
1.68184e-05
1.70384e-05
1.7098e-05
1.72999e-05
1.73476e-05
1.75371e-05
1.75717e-05
1.77593e-05
1.7785e-05
1.79956e-05
1.80254e-05
1.82821e-05
1.83326e-05
1.86358e-05
1.87198e-05
1.90801e-05
1.92156e-05
1.96206e-05
1.98325e-05
2.028e-05
2.06042e-05
2.11305e-05
2.1577e-05
2.2215e-05
2.27391e-05
2.33089e-05
2.3699e-05
2.42351e-05
2.47432e-05
2.53648e-05
2.60602e-05
2.68474e-05
2.75768e-05
2.84107e-05
2.92539e-05
3.02985e-05
3.11371e-05
3.20606e-05
3.28413e-05
3.361e-05
3.42936e-05
3.50313e-05
3.55837e-05
3.57684e-05
3.61933e-05
3.67016e-05
3.67848e-05
3.67435e-05
3.69867e-05
3.7097e-05
3.66627e-05
3.66398e-05
3.64562e-05
3.58303e-05
3.55731e-05
3.50772e-05
3.45341e-05
3.41785e-05
3.33579e-05
3.26206e-05
3.2051e-05
3.12075e-05
3.03535e-05
2.95612e-05
2.86084e-05
2.76192e-05
2.66006e-05
2.55294e-05
2.47073e-05
2.35141e-05
2.23925e-05
2.11606e-05
1.99193e-05
1.87179e-05
1.73703e-05
1.60499e-05
1.47796e-05
1.34212e-05
1.21681e-05
1.0813e-05
9.5947e-06
8.23466e-06
7.16179e-06
5.80711e-06
4.97588e-06
3.7718e-06
3.18539e-06
2.19748e-06
1.79515e-06
1.01719e-06
8.53943e-07
2.71625e-07
2.96475e-07
6.8775e-08
1.28414e-07
2.64514e-08
6.73964e-08
2.24497e-08
5.5729e-08
1.99609e-08
6.56992e-08
1.74761e-08
6.05957e-08
2.07507e-08
4.77038e-08
2.25279e-08
4.14128e-08
2.2932e-08
4.80841e-08
2.20924e-08
5.30806e-08
2.30715e-08
6.13136e-08
2.46391e-08
5.39712e-08
2.27539e-08
4.82764e-08
2.40787e-08
4.9509e-08
3.00935e-08
5.2848e-08
3.23274e-08
5.52202e-08
4.07985e-08
6.01985e-08
3.69814e-08
4.5919e-08
3.29764e-08
5.17656e-08
4.27625e-08
5.54073e-08
3.7127e-08
4.17982e-08
3.14316e-08
4.4023e-08
4.77308e-08
6.66481e-08
6.94858e-08
5.83993e-08
6.72743e-08
5.18698e-08
5.21102e-08
4.39891e-08
2.84783e-08
2.52823e-08
3.81171e-08
2.11036e-08
4.59795e-08
6.91816e-08
1.27573e-08
2.06352e-08
1.32695e-08
1.77712e-08
1.6721e-08
1.64826e-08
1.86422e-08
1.37723e-08
1.63136e-08
1.15211e-08
1.5276e-08
1.37568e-08
1.4294e-08
1.88191e-08
1.12599e-08
2.63317e-08
7.12153e-09
3.33643e-08
4.34001e-09
3.9054e-08
4.22603e-09
4.39734e-08
5.92451e-09
4.90212e-08
6.02757e-09
4.71144e-08
2.02045e-09
5.15699e-08
9.79256e-10
5.61954e-08
2.14074e-09
4.03773e-08
9.36434e-09
2.20999e-08
4.2634e-08
1.60185e-09
1.7854e-07
1.14466e-10
1.11713e-07
3.74174e-08
3.98038e-08
1.136e-07
2.32831e-07
2.08241e-07
1.01773e-06
8.37883e-07
2.44887e-06
3.01714e-06
4.17925e-06
5.82314e-06
6.37093e-06
8.25348e-06
9.55384e-06
1.08409e-05
1.25374e-05