/*--------------------------------*- C++ -*----------------------------------*\
| =========                 |                                                 |
| \\      /  F ield         | OpenFOAM: The Open Source CFD Toolbox           |
|  \\    /   O peration     | Version:  v2006                                 |
|   \\  /    A nd           | Website:  www.openfoam.com                      |
|    \\/     M anipulation  |                                                 |
\*---------------------------------------------------------------------------*/
FoamFile
{
    version     2.0;
    format      ascii;
    class       volScalarField;
    location    "100";
    object      nuTilda;
}
// * * * * * * * * * * * * * * * * * * * * * * * * * * * * * * * * * * * * * //

dimensions      [0 2 -1 0 0 0 0];


internalField   nonuniform List<scalar> 
93840
(
3.97898e-07
3.97918e-07
3.98e-07
3.98068e-07
3.98835e-07
4.00223e-07
4.01324e-07
4.00659e-07
4.01515e-07
4.01627e-07
4.02002e-07
4.02857e-07
4.02447e-07
4.02634e-07
4.05217e-07
4.14305e-07
4.41205e-07
4.65438e-07
4.01818e-07
2.28625e-07
5.60922e-07
1.97836e-06
6.19182e-06
1.37769e-05
1.78418e-05
1.68756e-05
1.50774e-05
1.54588e-05
1.50369e-05
1.47572e-05
1.39518e-05
1.31694e-05
1.338e-05
1.28011e-05
1.27982e-05
1.26577e-05
1.24275e-05
1.24452e-05
1.21492e-05
1.22142e-05
1.19321e-05
1.20004e-05
1.17417e-05
1.17886e-05
1.15573e-05
1.15713e-05
1.13774e-05
1.13737e-05
1.12139e-05
1.11783e-05
1.10462e-05
1.1004e-05
1.08713e-05
1.0811e-05
1.07415e-05
1.07317e-05
1.06376e-05
1.05763e-05
1.04607e-05
1.04152e-05
1.03681e-05
1.03138e-05
1.02507e-05
1.02569e-05
1.02302e-05
1.02243e-05
1.0223e-05
1.02468e-05
1.0236e-05
1.02533e-05
1.02706e-05
1.02908e-05
1.03253e-05
1.03726e-05
1.04163e-05
1.04693e-05
1.05292e-05
1.05884e-05
1.0663e-05
1.07262e-05
1.07963e-05
1.08616e-05
1.0925e-05
1.10152e-05
1.11098e-05
1.11883e-05
1.12783e-05
1.13678e-05
1.14541e-05
1.15408e-05
1.16712e-05
1.17949e-05
1.19255e-05
1.20646e-05
1.22049e-05
1.23713e-05
1.25321e-05
1.26943e-05
1.28693e-05
1.30624e-05
1.32578e-05
1.3451e-05
1.36551e-05
1.4035e-05
1.44131e-05
1.45103e-05
1.45999e-05
1.48902e-05
1.52023e-05
1.55149e-05
1.58206e-05
1.61333e-05
1.64378e-05
1.68136e-05
1.71572e-05
1.75057e-05
1.78278e-05
1.82053e-05
1.85145e-05
1.88332e-05
1.90828e-05
1.93581e-05
1.94841e-05
1.96713e-05
1.96416e-05
1.96478e-05
1.97215e-05
1.94801e-05
1.95734e-05
1.94196e-05
1.93164e-05
1.92135e-05
1.90759e-05
1.90117e-05
1.89143e-05
1.88022e-05
1.8674e-05
1.86015e-05
1.84972e-05
1.84625e-05
1.83862e-05
1.83264e-05
1.82084e-05
1.81528e-05
1.80761e-05
1.80267e-05
1.796e-05
1.7896e-05
1.78009e-05
1.77042e-05
1.76093e-05
1.75101e-05
1.73999e-05
1.72739e-05
1.71386e-05
1.69922e-05
1.6831e-05
1.66437e-05
1.64366e-05
1.62376e-05
1.60595e-05
1.58629e-05
1.56091e-05
1.53213e-05
1.50119e-05
1.46784e-05
1.42834e-05
1.37321e-05
1.26787e-05
1.04102e-05
6.50321e-06
4.67416e-06
9.54568e-06
8.99449e-06
1.59553e-06
3.67959e-07
2.63769e-06
2.85911e-06
2.99605e-07
4.16797e-07
4.90277e-07
2.94463e-07
7.9364e-07
6.40215e-07
3.04889e-07
9.58104e-07
1.69597e-06
5.298e-07
1.94533e-08
9.63878e-06
1.66756e-05
4.1917e-06
5.23058e-06
1.74347e-05
2.49982e-05
2.81674e-05
2.90549e-05
2.97871e-05
2.99684e-05
3.03505e-05
3.02934e-05
3.02337e-05
3.00778e-05
2.99975e-05
2.98131e-05
2.97012e-05
2.948e-05
2.93719e-05
2.91541e-05
2.90504e-05
2.88587e-05
2.87624e-05
2.85641e-05
2.84743e-05
2.82598e-05
2.81498e-05
2.79293e-05
2.78506e-05
2.76404e-05
2.75943e-05
2.74792e-05
2.75257e-05
2.73094e-05
2.72242e-05
2.69492e-05
2.68578e-05
2.66117e-05
2.65422e-05
2.62741e-05
2.61924e-05
2.60172e-05
2.61469e-05
2.60065e-05
2.61293e-05
2.60067e-05
2.60264e-05
2.58293e-05
2.58564e-05
2.5653e-05
2.57199e-05
2.55034e-05
2.56108e-05
2.53788e-05
2.55351e-05
2.53239e-05
2.54745e-05
2.51902e-05
2.55876e-05
2.5179e-05
2.54241e-05
2.51284e-05
2.50435e-05
2.26431e-05
1.77419e-05
1.33346e-05
1.31128e-05
1.29903e-05
1.28494e-05
1.3021e-05
1.31194e-05
1.30984e-05
1.30002e-05
1.28943e-05
1.2757e-05
1.26116e-05
1.24451e-05
1.22952e-05
1.20833e-05
1.17165e-05
1.13824e-05
1.12722e-05
1.11209e-05
1.07537e-05
1.03291e-05
1.00897e-05
9.89836e-06
9.61895e-06
9.2656e-06
8.9482e-06
8.64148e-06
8.33338e-06
8.0169e-06
7.69846e-06
7.37878e-06
7.05697e-06
6.73976e-06
6.427e-06
6.1129e-06
5.78046e-06
5.41904e-06
5.02404e-06
4.57301e-06
4.07299e-06
3.52492e-06
2.93498e-06
2.47006e-06
2.11399e-06
1.75801e-06
1.37327e-06
7.51817e-07
2.21615e-07
2.75281e-07
2.6699e-07
2.39096e-07
2.36682e-07
2.4321e-07
2.50482e-07
2.59056e-07
2.94987e-07
3.10166e-07
3.34389e-07
3.49264e-07
3.56663e-07
3.40249e-07
3.16055e-07
2.95764e-07
2.83948e-07
2.84356e-07
2.82546e-07
2.75127e-07
2.63024e-07
2.71754e-07
2.57033e-07
2.53818e-07
2.41945e-07
2.32611e-07
2.35616e-07
2.48523e-07
2.64559e-07
3.79764e-07
5.96886e-07
1.03278e-06
1.44144e-06
2.04396e-06
3.00866e-06
3.13768e-06
9.22797e-06
1.40626e-05
1.71288e-05
1.85921e-05
1.91391e-05
1.73153e-05
1.50164e-05
1.68607e-05
1.54044e-05
8.06843e-06
2.58431e-06
9.73441e-07
5.5568e-07
3.66479e-07
3.24545e-07
3.55756e-07
3.81739e-07
3.96534e-07
4.00543e-07
4.02379e-07
4.02509e-07
4.02179e-07
4.01669e-07
4.01469e-07
4.00729e-07
4.02111e-07
4.00462e-07
3.98738e-07
3.9804e-07
3.97937e-07
3.97905e-07
3.97659e-07
3.97877e-07
3.97914e-07
3.97753e-07
3.97911e-07
3.98751e-07
4.00411e-07
4.01331e-07
4.00984e-07
4.01464e-07
4.01746e-07
4.02076e-07
4.03013e-07
4.02483e-07
4.01795e-07
4.02798e-07
4.11278e-07
4.2277e-07
4.30474e-07
4.22718e-07
4.20159e-07
3.44202e-07
1.01414e-06
4.14199e-06
1.07857e-05
1.6614e-05
1.81452e-05
1.78148e-05
1.64487e-05
1.5521e-05
1.47483e-05
1.40745e-05
1.36785e-05
1.34257e-05
1.33157e-05
1.35145e-05
1.31796e-05
1.35754e-05
1.30829e-05
1.3582e-05
1.30518e-05
1.3557e-05
1.30376e-05
1.35343e-05
1.30443e-05
1.35124e-05
1.30553e-05
1.35082e-05
1.30595e-05
1.35053e-05
1.30802e-05
1.34786e-05
1.31049e-05
1.34352e-05
1.31031e-05
1.33584e-05
1.31151e-05
1.33413e-05
1.31565e-05
1.33345e-05
1.31925e-05
1.33812e-05
1.32861e-05
1.34673e-05
1.34456e-05
1.36967e-05
1.37207e-05
1.39645e-05
1.40281e-05
1.42246e-05
1.42841e-05
1.44773e-05
1.45971e-05
1.48036e-05
1.49753e-05
1.52204e-05
1.54129e-05
1.56612e-05
1.58789e-05
1.60941e-05
1.62733e-05
1.65435e-05
1.67028e-05
1.68471e-05
1.70165e-05
1.72309e-05
1.73575e-05
1.7492e-05
1.76847e-05
1.78065e-05
1.7911e-05
1.80742e-05
1.81716e-05
1.83006e-05
1.84161e-05
1.85045e-05
1.86544e-05
1.87691e-05
1.88493e-05
1.89531e-05
1.90649e-05
1.91451e-05
1.92367e-05
1.92864e-05
1.93687e-05
1.95245e-05
1.95966e-05
1.96252e-05
1.96544e-05
1.97001e-05
1.97462e-05
1.97558e-05
1.97836e-05
1.97667e-05
1.97541e-05
1.97228e-05
1.96881e-05
1.96223e-05
1.95635e-05
1.94704e-05
1.9381e-05
1.92566e-05
1.91358e-05
1.89655e-05
1.88277e-05
1.86153e-05
1.84776e-05
1.82486e-05
1.80845e-05
1.78884e-05
1.76706e-05
1.74931e-05
1.72835e-05
1.70998e-05
1.69047e-05
1.67009e-05
1.65133e-05
1.63188e-05
1.61385e-05
1.5941e-05
1.57605e-05
1.55498e-05
1.53625e-05
1.51593e-05
1.4972e-05
1.47547e-05
1.45526e-05
1.43176e-05
1.40919e-05
1.38394e-05
1.36053e-05
1.33385e-05
1.30643e-05
1.27549e-05
1.24287e-05
1.20625e-05
1.16579e-05
1.11787e-05
1.06306e-05
1.00221e-05
9.42429e-06
8.8243e-06
8.16342e-06
7.217e-06
5.91225e-06
4.65945e-06
4.16541e-06
4.26515e-06
3.95431e-06
2.62548e-06
9.81115e-07
1.51527e-06
3.357e-07
8.83552e-07
4.75415e-07
1.61102e-07
1.57809e-07
2.09976e-07
1.86046e-07
2.17254e-07
4.45371e-07
3.6887e-07
5.94148e-07
3.46091e-07
3.68975e-07
4.19417e-07
3.64529e-07
6.22926e-07
5.47687e-07
4.91123e-09
1.06978e-06
8.5506e-07
7.13474e-07
8.21395e-09
1.7257e-06
5.34123e-06
6.82216e-06
5.85969e-06
6.07164e-06
8.5779e-06
1.14368e-05
1.31554e-05
1.44181e-05
1.57562e-05
1.70996e-05
1.80433e-05
1.87732e-05
1.94093e-05
2.00861e-05
2.06623e-05
2.121e-05
2.15951e-05
2.19353e-05
2.21689e-05
2.24169e-05
2.25817e-05
2.27903e-05
2.2941e-05
2.31252e-05
2.32679e-05
2.34445e-05
2.35751e-05
2.37454e-05
2.38644e-05
2.40314e-05
2.41303e-05
2.43026e-05
2.43939e-05
2.45446e-05
2.46345e-05
2.47602e-05
2.48389e-05
2.49748e-05
2.50227e-05
2.52303e-05
2.52567e-05
2.54766e-05
2.55815e-05
2.56891e-05
2.58933e-05
2.59684e-05
2.60723e-05
2.63004e-05
2.63021e-05
2.64347e-05
2.6661e-05
2.66402e-05
2.69107e-05
2.66759e-05
2.73753e-05
2.71218e-05
2.69252e-05
2.78634e-05
2.69403e-05
2.62097e-05
2.76211e-05
2.95997e-05
2.98068e-05
2.93256e-05
2.95697e-05
2.90876e-05
2.81634e-05
2.72265e-05
2.64386e-05
2.57692e-05
2.5245e-05
2.48088e-05
2.44485e-05
2.40625e-05
2.3702e-05
2.34672e-05
2.31649e-05
2.2742e-05
2.22188e-05
2.18166e-05
2.14823e-05
2.11232e-05
2.07202e-05
2.03727e-05
2.00763e-05
1.97513e-05
1.94398e-05
1.91111e-05
1.88073e-05
1.84866e-05
1.82034e-05
1.79099e-05
1.76022e-05
1.72512e-05
1.68099e-05
1.61705e-05
1.53406e-05
1.41253e-05
1.26535e-05
1.07592e-05
8.59057e-06
7.30538e-06
6.75342e-06
6.24481e-06
6.08676e-06
5.40752e-06
3.98342e-06
2.75235e-06
1.76162e-06
1.25425e-06
1.08241e-06
1.13301e-06
1.0899e-06
1.12144e-06
1.28415e-06
1.33682e-06
1.43905e-06
1.54396e-06
1.4687e-06
1.24404e-06
9.60932e-07
8.38753e-07
8.14168e-07
9.42182e-07
1.00143e-06
1.02274e-06
1.03226e-06
1.15182e-06
1.09243e-06
1.08068e-06
1.03303e-06
9.59934e-07
9.61346e-07
9.66309e-07
1.04111e-06
1.57702e-06
2.76117e-06
4.43047e-06
6.32885e-06
8.57217e-06
1.23903e-05
1.71339e-05
1.96133e-05
2.25864e-05
2.60793e-05
3.00971e-05
2.92158e-05
2.76668e-05
2.18517e-05
1.63727e-05
1.58818e-05
1.01775e-05
3.5148e-06
9.8145e-07
5.61102e-07
4.57296e-07
4.12923e-07
4.03977e-07
4.04703e-07
4.02173e-07
4.01507e-07
4.02359e-07
4.02471e-07
4.02118e-07
4.01733e-07
4.01354e-07
4.00887e-07
4.01753e-07
4.00532e-07
3.98567e-07
3.98366e-07
3.98056e-07
3.9798e-07
3.9785e-07
3.98021e-07
3.97993e-07
3.98133e-07
3.98192e-07
3.98601e-07
4.00959e-07
4.01837e-07
4.01272e-07
4.01048e-07
4.01956e-07
4.0233e-07
4.03019e-07
4.02149e-07
4.01181e-07
3.986e-07
3.90087e-07
3.63302e-07
3.35642e-07
3.71346e-07
5.23285e-07
6.1445e-07
7.47952e-07
2.52655e-06
7.74023e-06
1.39745e-05
1.69464e-05
1.86673e-05
1.9203e-05
1.86395e-05
1.83691e-05
1.78559e-05
1.7581e-05
1.7403e-05
1.73258e-05
1.73604e-05
1.72792e-05
1.73779e-05
1.72846e-05
1.74064e-05
1.73151e-05
1.74506e-05
1.73608e-05
1.75157e-05
1.74206e-05
1.75921e-05
1.74928e-05
1.76777e-05
1.75546e-05
1.77593e-05
1.75975e-05
1.78025e-05
1.76208e-05
1.77997e-05
1.76101e-05
1.77744e-05
1.76487e-05
1.78434e-05
1.77676e-05
1.7949e-05
1.79251e-05
1.81463e-05
1.81773e-05
1.84565e-05
1.86349e-05
1.90387e-05
1.92344e-05
1.96364e-05
1.98282e-05
2.01555e-05
2.0351e-05
2.07297e-05
2.10338e-05
2.14462e-05
2.18505e-05
2.23411e-05
2.27699e-05
2.32728e-05
2.37179e-05
2.41199e-05
2.4494e-05
2.50181e-05
2.52643e-05
2.54925e-05
2.58082e-05
2.61612e-05
2.62914e-05
2.64805e-05
2.67664e-05
2.68486e-05
2.69199e-05
2.71082e-05
2.71057e-05
2.71878e-05
2.72142e-05
2.71887e-05
2.72903e-05
2.72806e-05
2.71827e-05
2.71584e-05
2.71144e-05
2.69954e-05
2.68988e-05
2.67231e-05
2.66049e-05
2.66237e-05
2.64519e-05
2.62205e-05
2.59562e-05
2.5715e-05
2.54585e-05
2.51341e-05
2.48417e-05
2.44531e-05
2.40679e-05
2.36733e-05
2.32548e-05
2.28106e-05
2.23736e-05
2.193e-05
2.14821e-05
2.10554e-05
2.06125e-05
2.01999e-05
1.9796e-05
1.93883e-05
1.9018e-05
1.85823e-05
1.82552e-05
1.78049e-05
1.74541e-05
1.705e-05
1.66719e-05
1.62784e-05
1.58846e-05
1.54738e-05
1.50881e-05
1.46767e-05
1.42738e-05
1.38414e-05
1.3425e-05
1.2968e-05
1.25439e-05
1.20875e-05
1.16299e-05
1.11256e-05
1.06226e-05
1.00543e-05
9.47495e-06
8.83565e-06
8.21114e-06
7.52097e-06
6.82852e-06
6.08646e-06
5.3435e-06
4.58294e-06
3.921e-06
3.33538e-06
2.76527e-06
2.10726e-06
1.60123e-06
1.39709e-06
1.28915e-06
8.79972e-07
5.05826e-07
4.71493e-07
5.17914e-07
4.00005e-07
3.38128e-07
3.46033e-07
4.45154e-07
5.12701e-07
4.6969e-07
4.16482e-07
5.54774e-07
5.50386e-07
5.31974e-07
4.64936e-07
4.71584e-07
4.9636e-07
4.36218e-07
4.2323e-07
3.66344e-07
4.87619e-07
2.39283e-07
5.30979e-07
4.32413e-07
4.36277e-07
4.26728e-07
5.25865e-07
4.24478e-07
2.90686e-07
5.01801e-07
6.09909e-07
1.85662e-07
9.28344e-07
9.04786e-07
8.89658e-07
5.57765e-07
1.41547e-06
2.05783e-06
1.76408e-06
2.10149e-06
3.03888e-06
4.00517e-06
4.76463e-06
5.3811e-06
5.99079e-06
7.02268e-06
8.3814e-06
9.8829e-06
1.11944e-05
1.23515e-05
1.33755e-05
1.43571e-05
1.52293e-05
1.60931e-05
1.68942e-05
1.76694e-05
1.83985e-05
1.90919e-05
1.97628e-05
2.03679e-05
2.09005e-05
2.14403e-05
2.19122e-05
2.24908e-05
2.29811e-05
2.35022e-05
2.39791e-05
2.44335e-05
2.49043e-05
2.54237e-05
2.57353e-05
2.63734e-05
2.65872e-05
2.71606e-05
2.75892e-05
2.78701e-05
2.8539e-05
2.87973e-05
2.9181e-05
2.98089e-05
2.99925e-05
3.03346e-05
3.10305e-05
3.10605e-05
3.17291e-05
3.1459e-05
3.27256e-05
3.28416e-05
3.19838e-05
3.40134e-05
3.36778e-05
3.22502e-05
3.57528e-05
3.9994e-05
4.19584e-05
4.19682e-05
4.32128e-05
4.34065e-05
4.27722e-05
4.19001e-05
4.10865e-05
4.03713e-05
3.98585e-05
3.94891e-05
3.92426e-05
3.89618e-05
3.86378e-05
3.85296e-05
3.8339e-05
3.78918e-05
3.70832e-05
3.63954e-05
3.5968e-05
3.55694e-05
3.50625e-05
3.46066e-05
3.43024e-05
3.39416e-05
3.36285e-05
3.32627e-05
3.29551e-05
3.26103e-05
3.23602e-05
3.20825e-05
3.17545e-05
3.13038e-05
3.05752e-05
2.93016e-05
2.74445e-05
2.47412e-05
2.15971e-05
1.80945e-05
1.43005e-05
1.11823e-05
9.6212e-06
8.65621e-06
8.26427e-06
7.9465e-06
7.13408e-06
5.84085e-06
3.66167e-06
1.98728e-06
1.60909e-06
1.88345e-06
1.99964e-06
2.03725e-06
2.39604e-06
2.49096e-06
2.75356e-06
3.16864e-06
3.26951e-06
2.85612e-06
1.94478e-06
1.28908e-06
1.11772e-06
1.33077e-06
1.36105e-06
1.26988e-06
1.27336e-06
1.39723e-06
1.28835e-06
1.32396e-06
1.23012e-06
1.10864e-06
9.81417e-07
9.16208e-07
1.51154e-06
2.90422e-06
4.96306e-06
7.08848e-06
9.14241e-06
1.07349e-05
1.28436e-05
1.60003e-05
2.04117e-05
2.45093e-05
2.9611e-05
3.49301e-05
3.54893e-05
3.65391e-05
3.73133e-05
2.49645e-05
1.82955e-05
1.25829e-05
5.04716e-06
1.33552e-06
4.26971e-07
4.18008e-07
4.47699e-07
4.19057e-07
4.02563e-07
4.01005e-07
4.01614e-07
4.02408e-07
4.02278e-07
4.02074e-07
4.01707e-07
4.01158e-07
4.01099e-07
4.02211e-07
4.00244e-07
3.98722e-07
3.98265e-07
3.98008e-07
3.97888e-07
3.97868e-07
3.97594e-07
3.97722e-07
3.97752e-07
3.98173e-07
3.98579e-07
4.00187e-07
4.02182e-07
4.01312e-07
4.01504e-07
4.01883e-07
4.02068e-07
4.02692e-07
4.02059e-07
4.01178e-07
3.99845e-07
4.02472e-07
4.08205e-07
4.18127e-07
3.95496e-07
2.70195e-07
3.24228e-07
6.90839e-07
1.62649e-06
5.39656e-06
1.12956e-05
1.47592e-05
1.67867e-05
1.81481e-05
1.85988e-05
1.8873e-05
1.88696e-05
1.89046e-05
1.88961e-05
1.89134e-05
1.89581e-05
1.89709e-05
1.90478e-05
1.90531e-05
1.91501e-05
1.91448e-05
1.9269e-05
1.92566e-05
1.93919e-05
1.9384e-05
1.95172e-05
1.95189e-05
1.96377e-05
1.96299e-05
1.97346e-05
1.96983e-05
1.97928e-05
1.97375e-05
1.98215e-05
1.97748e-05
1.98745e-05
1.98816e-05
2.00396e-05
2.01062e-05
2.02868e-05
2.0415e-05
2.0647e-05
2.08539e-05
2.1218e-05
2.15937e-05
2.20499e-05
2.2389e-05
2.28365e-05
2.31284e-05
2.35291e-05
2.38785e-05
2.43867e-05
2.48508e-05
2.54031e-05
2.59965e-05
2.66439e-05
2.72509e-05
2.79077e-05
2.84899e-05
2.90011e-05
2.95234e-05
3.01752e-05
3.04369e-05
3.07236e-05
3.11443e-05
3.15303e-05
3.16265e-05
3.1849e-05
3.21646e-05
3.21643e-05
3.22092e-05
3.23748e-05
3.22484e-05
3.22672e-05
3.21897e-05
3.20536e-05
3.20823e-05
3.19165e-05
3.16555e-05
3.15099e-05
3.13006e-05
3.09984e-05
3.07373e-05
3.03814e-05
3.0074e-05
2.98729e-05
2.94519e-05
2.9043e-05
2.85397e-05
2.80489e-05
2.75289e-05
2.69294e-05
2.63732e-05
2.56933e-05
2.50196e-05
2.43449e-05
2.36337e-05
2.29207e-05
2.22099e-05
2.15218e-05
2.08222e-05
2.01959e-05
1.95167e-05
1.89398e-05
1.83243e-05
1.77727e-05
1.72106e-05
1.66321e-05
1.61299e-05
1.55257e-05
1.50103e-05
1.44259e-05
1.3899e-05
1.33117e-05
1.27658e-05
1.21513e-05
1.16028e-05
1.09834e-05
1.0391e-05
9.72073e-06
9.06739e-06
8.32517e-06
7.61588e-06
6.84689e-06
6.08104e-06
5.29297e-06
4.5649e-06
3.83469e-06
3.16744e-06
2.53248e-06
2.06781e-06
1.66242e-06
1.31777e-06
1.00468e-06
8.42104e-07
6.72026e-07
5.43919e-07
4.70622e-07
4.84282e-07
3.96359e-07
3.41929e-07
3.70513e-07
4.09466e-07
3.64755e-07
3.95646e-07
3.72505e-07
3.63239e-07
3.82604e-07
4.19475e-07
3.70218e-07
4.06901e-07
3.75236e-07
4.04953e-07
3.69875e-07
3.43048e-07
2.80047e-07
3.39007e-07
3.44919e-07
4.08153e-07
3.53122e-07
3.5531e-07
4.06455e-07
5.0625e-07
3.47228e-07
4.29876e-07
7.12437e-07
4.64792e-07
3.5791e-07
3.25164e-07
3.57916e-07
4.11499e-07
3.55646e-07
4.1333e-07
4.23072e-07
2.7285e-07
3.04838e-07
4.60903e-07
3.17375e-07
2.9587e-07
4.52501e-07
5.22996e-07
3.65793e-07
4.14324e-07
5.04706e-07
5.44597e-07
5.60394e-07
7.57274e-07
7.59789e-07
8.80801e-07
1.25413e-06
1.83787e-06
2.25962e-06
2.82826e-06
3.53372e-06
4.29628e-06
5.10471e-06
6.07578e-06
7.14374e-06
8.29086e-06
9.55536e-06
1.08349e-05
1.21902e-05
1.33812e-05
1.44253e-05
1.54081e-05
1.62647e-05
1.72484e-05
1.81194e-05
1.89882e-05
1.98104e-05
2.05589e-05
2.13624e-05
2.22646e-05
2.28382e-05
2.38956e-05
2.43339e-05
2.52093e-05
2.59583e-05
2.63866e-05
2.74242e-05
2.78764e-05
2.84705e-05
2.94234e-05
2.98072e-05
3.03128e-05
3.13747e-05
3.15678e-05
3.24385e-05
3.23766e-05
3.38202e-05
3.45268e-05
3.31531e-05
3.5936e-05
3.61633e-05
3.53008e-05
3.93627e-05
4.46946e-05
4.78149e-05
4.83401e-05
4.98405e-05
5.03025e-05
5.00249e-05
4.94897e-05
4.89226e-05
4.83823e-05
4.80341e-05
4.78488e-05
4.77945e-05
4.77389e-05
4.76342e-05
4.77132e-05
4.76036e-05
4.72231e-05
4.64041e-05
4.56058e-05
4.50698e-05
4.46182e-05
4.41006e-05
4.36365e-05
4.33744e-05
4.30312e-05
4.27584e-05
4.24172e-05
4.21481e-05
4.18311e-05
4.1642e-05
4.14473e-05
4.11696e-05
4.0754e-05
3.99507e-05
3.84749e-05
3.61975e-05
3.28467e-05
2.88989e-05
2.45028e-05
1.99603e-05
1.54271e-05
1.23861e-05
1.06765e-05
9.70836e-06
9.46433e-06
9.29497e-06
8.76924e-06
6.88222e-06
4.30363e-06
2.54895e-06
2.16921e-06
2.22888e-06
2.20637e-06
2.8178e-06
3.06079e-06
3.39887e-06
4.13994e-06
4.72772e-06
4.71598e-06
3.64236e-06
2.13992e-06
1.30853e-06
1.52902e-06
1.63339e-06
1.41141e-06
1.31854e-06
1.4778e-06
1.28706e-06
1.3355e-06
1.30268e-06
1.20018e-06
1.18012e-06
1.2355e-06
1.86123e-06
3.13097e-06
5.0551e-06
7.47858e-06
1.00543e-05
1.21655e-05
1.40697e-05
1.55492e-05
1.93194e-05
2.33362e-05
2.88812e-05
3.44993e-05
3.7653e-05
4.23457e-05
4.83557e-05
3.8874e-05
2.31659e-05
1.46696e-05
6.55011e-06
1.98468e-06
6.47024e-07
4.09511e-07
3.8437e-07
3.89012e-07
3.93178e-07
3.9786e-07
3.99799e-07
4.02776e-07
4.02832e-07
4.02045e-07
4.01925e-07
4.01329e-07
4.00885e-07
4.02219e-07
4.00706e-07
3.98847e-07
3.98118e-07
3.98177e-07
3.97987e-07
3.97937e-07
3.98144e-07
3.98173e-07
3.98136e-07
3.98224e-07
3.99005e-07
4.00929e-07
4.01886e-07
4.0125e-07
4.01633e-07
4.01994e-07
4.02456e-07
4.02606e-07
4.01691e-07
4.00559e-07
3.97486e-07
3.94659e-07
4.01296e-07
4.31375e-07
4.41055e-07
3.61515e-07
2.50221e-07
3.07147e-07
8.42451e-07
3.1695e-06
8.54484e-06
1.28958e-05
1.50078e-05
1.67626e-05
1.75777e-05
1.82229e-05
1.84425e-05
1.87769e-05
1.88635e-05
1.90446e-05
1.91198e-05
1.92435e-05
1.93158e-05
1.94229e-05
1.94941e-05
1.95919e-05
1.9678e-05
1.97631e-05
1.98544e-05
1.99379e-05
2.00186e-05
2.01035e-05
2.01598e-05
2.02356e-05
2.02654e-05
2.03311e-05
2.03522e-05
2.04221e-05
2.04529e-05
2.05572e-05
2.06289e-05
2.07896e-05
2.09364e-05
2.11526e-05
2.13497e-05
2.16362e-05
2.19075e-05
2.23094e-05
2.27531e-05
2.32859e-05
2.37386e-05
2.41774e-05
2.46287e-05
2.50188e-05
2.54985e-05
2.60162e-05
2.6631e-05
2.72387e-05
2.79052e-05
2.86729e-05
2.94323e-05
3.01858e-05
3.09366e-05
3.1609e-05
3.22006e-05
3.28442e-05
3.35364e-05
3.37771e-05
3.41171e-05
3.46125e-05
3.49565e-05
3.50012e-05
3.5247e-05
3.55441e-05
3.54213e-05
3.54412e-05
3.55368e-05
3.52582e-05
3.51947e-05
3.4991e-05
3.47304e-05
3.46565e-05
3.42952e-05
3.38667e-05
3.35879e-05
3.31853e-05
3.26938e-05
3.22609e-05
3.17135e-05
3.11894e-05
3.07222e-05
3.00564e-05
2.94913e-05
2.87466e-05
2.80159e-05
2.72373e-05
2.63847e-05
2.55833e-05
2.46424e-05
2.37138e-05
2.27981e-05
2.18349e-05
2.09048e-05
1.99629e-05
1.90826e-05
1.81721e-05
1.73912e-05
1.64956e-05
1.57908e-05
1.49647e-05
1.42982e-05
1.35424e-05
1.28434e-05
1.21568e-05
1.14274e-05
1.07122e-05
9.96097e-06
9.23997e-06
8.42213e-06
7.66039e-06
6.77197e-06
6.02409e-06
5.17355e-06
4.47126e-06
3.69812e-06
3.09317e-06
2.44707e-06
2.00887e-06
1.55691e-06
1.23618e-06
9.36324e-07
8.01851e-07
6.40631e-07
5.86639e-07
4.65008e-07
5.06747e-07
4.55361e-07
4.70716e-07
4.07886e-07
4.43344e-07
4.05252e-07
4.38629e-07
4.14611e-07
4.52027e-07
4.28682e-07
4.76629e-07
4.43483e-07
4.75716e-07
4.33629e-07
4.62466e-07
4.18032e-07
4.6492e-07
4.30956e-07
4.66086e-07
4.3251e-07
4.38734e-07
3.97469e-07
4.27116e-07
4.25161e-07
4.81239e-07
4.99429e-07
4.887e-07
4.57157e-07
3.97728e-07
4.56141e-07
4.55883e-07
3.92175e-07
3.67737e-07
4.02557e-07
4.25279e-07
3.55778e-07
1.97213e-07
4.00412e-07
4.44869e-07
4.25486e-07
4.4696e-07
4.49241e-07
4.8622e-07
5.06904e-07
4.85814e-07
5.07506e-07
5.35945e-07
4.80374e-07
4.73593e-07
4.54928e-07
4.6825e-07
4.75406e-07
4.54795e-07
5.0574e-07
4.55063e-07
4.90866e-07
4.56887e-07
4.77559e-07
4.25552e-07
4.9818e-07
4.97245e-07
5.74055e-07
5.3801e-07
6.97125e-07
6.95292e-07
7.92671e-07
8.60803e-07
1.258e-06
1.41813e-06
1.95299e-06
2.46336e-06
3.43824e-06
4.36354e-06
5.32185e-06
6.28513e-06
7.26489e-06
8.61645e-06
9.94268e-06
1.12466e-05
1.24984e-05
1.36259e-05
1.48113e-05
1.61415e-05
1.70129e-05
1.84765e-05
1.91884e-05
2.03337e-05
2.14489e-05
2.20406e-05
2.34236e-05
2.41093e-05
2.49087e-05
2.61383e-05
2.67783e-05
2.74291e-05
2.88228e-05
2.92439e-05
3.0278e-05
3.05085e-05
3.2052e-05
3.3263e-05
3.1843e-05
3.45985e-05
3.55316e-05
3.57409e-05
4.03449e-05
4.60941e-05
5.00003e-05
5.10555e-05
5.25787e-05
5.30896e-05
5.31575e-05
5.31059e-05
5.29623e-05
5.27494e-05
5.26759e-05
5.27691e-05
5.29834e-05
5.32361e-05
5.34619e-05
5.38303e-05
5.38581e-05
5.36003e-05
5.29035e-05
5.21182e-05
5.15102e-05
5.10051e-05
5.05062e-05
5.00787e-05
4.99016e-05
4.96267e-05
4.94308e-05
4.91585e-05
4.89644e-05
4.87127e-05
4.86002e-05
4.85302e-05
4.83524e-05
4.80587e-05
4.73168e-05
4.58947e-05
4.35879e-05
4.00541e-05
3.58203e-05
3.08606e-05
2.59465e-05
2.06968e-05
1.60525e-05
1.31418e-05
1.11899e-05
1.03699e-05
1.04857e-05
1.07725e-05
9.85528e-06
7.662e-06
5.041e-06
3.03037e-06
2.69747e-06
2.28637e-06
2.64061e-06
3.01431e-06
3.37357e-06
4.28681e-06
5.417e-06
6.19864e-06
5.9673e-06
4.45864e-06
2.22054e-06
1.72588e-06
1.91388e-06
1.63575e-06
1.34864e-06
1.54522e-06
1.3417e-06
1.34541e-06
1.37096e-06
1.30158e-06
1.33558e-06
1.39512e-06
1.67148e-06
2.29999e-06
3.59716e-06
5.78239e-06
8.61767e-06
1.12185e-05
1.40813e-05
1.60371e-05
1.8383e-05
2.14326e-05
2.65779e-05
3.20648e-05
3.72789e-05
4.48264e-05
5.30366e-05
5.23303e-05
3.29086e-05
1.77925e-05
7.86276e-06
2.5463e-06
8.57182e-07
4.3914e-07
3.54069e-07
3.7399e-07
3.97793e-07
4.02396e-07
4.01189e-07
4.02606e-07
4.02891e-07
4.01722e-07
4.01991e-07
4.01391e-07
4.01002e-07
4.02091e-07
4.00787e-07
3.98886e-07
3.98004e-07
3.97977e-07
3.97888e-07
3.97906e-07
3.97788e-07
3.97634e-07
3.97606e-07
3.97834e-07
3.9846e-07
4.00367e-07
4.01761e-07
4.01149e-07
4.01091e-07
4.01227e-07
4.01872e-07
4.02382e-07
4.01326e-07
4.01634e-07
4.01535e-07
4.00891e-07
3.99454e-07
3.97718e-07
4.35815e-07
5.83245e-07
6.35525e-07
4.62802e-07
5.41678e-07
1.51337e-06
5.11727e-06
9.88262e-06
1.24898e-05
1.43998e-05
1.56467e-05
1.64262e-05
1.7002e-05
1.73778e-05
1.76879e-05
1.79247e-05
1.81107e-05
1.82933e-05
1.84154e-05
1.85814e-05
1.86677e-05
1.88279e-05
1.89017e-05
1.90483e-05
1.91161e-05
1.92562e-05
1.93034e-05
1.94425e-05
1.94627e-05
1.96039e-05
1.96048e-05
1.97668e-05
1.97722e-05
1.99685e-05
2.00009e-05
2.02517e-05
2.03369e-05
2.06419e-05
2.08055e-05
2.11552e-05
2.13996e-05
2.1828e-05
2.21762e-05
2.27392e-05
2.32421e-05
2.38422e-05
2.42598e-05
2.47555e-05
2.52156e-05
2.57136e-05
2.62967e-05
2.69696e-05
2.76602e-05
2.83891e-05
2.91516e-05
3.00717e-05
3.08975e-05
3.17575e-05
3.25463e-05
3.32758e-05
3.39265e-05
3.46468e-05
3.53e-05
3.55074e-05
3.58965e-05
3.64247e-05
3.66623e-05
3.6656e-05
3.69122e-05
3.71405e-05
3.68684e-05
3.68663e-05
3.68451e-05
3.63967e-05
3.62391e-05
3.5894e-05
3.54975e-05
3.5294e-05
3.47103e-05
3.41202e-05
3.36996e-05
3.30833e-05
3.24052e-05
3.17942e-05
3.10454e-05
3.02878e-05
2.95397e-05
2.86535e-05
2.79504e-05
2.69715e-05
2.60264e-05
2.50065e-05
2.39366e-05
2.29187e-05
2.17548e-05
2.06114e-05
1.94998e-05
1.83266e-05
1.72249e-05
1.60851e-05
1.50529e-05
1.39584e-05
1.30548e-05
1.19529e-05
1.1134e-05
1.0074e-05
9.28102e-06
8.2672e-06
7.4065e-06
6.47574e-06
5.61201e-06
4.71936e-06
3.93859e-06
3.23129e-06
2.57623e-06
2.08504e-06
1.56364e-06
1.30778e-06
9.40342e-07
8.56366e-07
6.05164e-07
6.13896e-07
4.36162e-07
5.17273e-07
3.96287e-07
4.75875e-07
3.88265e-07
4.6337e-07
3.7461e-07
4.51498e-07
3.67008e-07
4.31568e-07
3.60166e-07
4.18301e-07
3.76367e-07
4.30693e-07
3.88136e-07
4.28555e-07
3.81306e-07
4.12238e-07
3.71035e-07
3.98242e-07
3.62151e-07
3.81279e-07
3.60479e-07
3.93736e-07
3.87963e-07
3.99323e-07
3.75776e-07
3.75418e-07
3.7622e-07
3.93506e-07
4.1703e-07
4.08204e-07
4.0803e-07
3.58869e-07
3.53703e-07
3.27283e-07
3.81832e-07
3.83967e-07
3.67958e-07
3.76688e-07
4.0525e-07
4.8209e-07
4.26006e-07
4.84571e-07
5.29866e-07
3.73819e-07
5.55547e-07
5.13514e-07
4.94078e-07
4.72523e-07
4.19632e-07
4.14885e-07
3.81465e-07
3.78693e-07
3.65995e-07
3.89596e-07
3.77155e-07
3.96615e-07
3.82286e-07
3.83861e-07
3.79014e-07
3.72642e-07
3.85514e-07
3.82067e-07
3.93147e-07
4.06543e-07
4.07395e-07
3.87917e-07
4.2308e-07
3.45876e-07
4.41972e-07
2.96266e-07
4.78979e-07
3.25955e-07
5.62569e-07
2.99298e-07
6.35086e-07
3.13873e-07
6.36547e-07
3.83527e-07
6.97543e-07
6.91543e-07
8.74202e-07
1.13691e-06
1.26039e-06
1.67579e-06
2.29737e-06
3.06744e-06
3.8749e-06
4.61152e-06
5.6686e-06
7.22456e-06
8.31554e-06
1.02026e-05
1.12977e-05
1.27721e-05
1.43826e-05
1.52385e-05
1.69773e-05
1.79616e-05
1.89839e-05
2.04381e-05
2.13915e-05
2.22018e-05
2.38791e-05
2.45746e-05
2.57502e-05
2.63233e-05
2.79466e-05
2.95146e-05
2.83945e-05
3.0825e-05
3.23904e-05
3.39777e-05
3.92753e-05
4.49795e-05
4.92321e-05
5.07105e-05
5.21225e-05
5.24922e-05
5.28226e-05
5.33155e-05
5.37155e-05
5.39505e-05
5.42376e-05
5.46824e-05
5.52297e-05
5.58549e-05
5.64886e-05
5.72401e-05
5.74833e-05
5.74047e-05
5.69324e-05
5.62724e-05
5.56517e-05
5.51085e-05
5.46488e-05
5.42856e-05
5.42251e-05
5.4067e-05
5.39867e-05
5.38262e-05
5.37434e-05
5.35972e-05
5.3575e-05
5.36613e-05
5.36242e-05
5.35194e-05
5.29471e-05
5.17436e-05
4.96944e-05
4.63235e-05
4.22239e-05
3.70879e-05
3.19313e-05
2.65747e-05
2.09369e-05
1.66265e-05
1.33896e-05
1.13083e-05
1.09274e-05
1.15668e-05
1.16961e-05
1.04996e-05
8.44878e-06
5.55029e-06
4.01343e-06
2.69836e-06
2.43749e-06
2.7627e-06
2.58719e-06
3.20455e-06
4.74565e-06
6.31154e-06
7.30371e-06
7.23595e-06
5.54699e-06
3.31771e-06
2.39578e-06
2.1307e-06
1.70039e-06
1.6648e-06
1.57201e-06
1.48888e-06
1.41001e-06
1.32006e-06
1.32222e-06
1.33791e-06
1.5055e-06
1.66927e-06
1.9543e-06
2.88212e-06
5.3628e-06
8.2404e-06
1.21044e-05
1.4874e-05
1.76409e-05
1.99941e-05
2.33704e-05
2.8533e-05
3.45233e-05
4.32969e-05
5.25e-05
6.07833e-05
4.64308e-05
2.44179e-05
9.93366e-06
3.09526e-06
8.96744e-07
4.38868e-07
4.1134e-07
4.09795e-07
4.0158e-07
4.00629e-07
4.00911e-07
4.02685e-07
4.0281e-07
4.01949e-07
4.01963e-07
4.01645e-07
4.00832e-07
4.01777e-07
4.00932e-07
3.98942e-07
3.98061e-07
3.97894e-07
3.9813e-07
3.97835e-07
3.97821e-07
3.98249e-07
3.98097e-07
3.98549e-07
3.98796e-07
4.00498e-07
4.01723e-07
4.0074e-07
4.00832e-07
4.01245e-07
4.02135e-07
4.02191e-07
4.01673e-07
4.015e-07
4.01081e-07
4.02028e-07
3.86838e-07
3.34777e-07
2.7327e-07
2.82808e-07
3.59926e-07
3.67183e-07
3.35909e-07
7.83646e-07
2.71613e-06
6.69539e-06
9.57633e-06
1.14841e-05
1.29451e-05
1.38649e-05
1.45747e-05
1.51042e-05
1.54905e-05
1.58517e-05
1.60778e-05
1.63587e-05
1.64938e-05
1.67363e-05
1.68215e-05
1.70414e-05
1.7101e-05
1.73028e-05
1.73504e-05
1.75398e-05
1.75744e-05
1.7762e-05
1.77877e-05
1.79982e-05
1.8028e-05
1.82846e-05
1.83351e-05
1.86382e-05
1.87222e-05
1.90824e-05
1.92179e-05
1.96228e-05
1.98346e-05
2.0282e-05
2.06062e-05
2.11323e-05
2.15788e-05
2.22167e-05
2.27407e-05
2.33104e-05
2.37004e-05
2.42365e-05
2.47446e-05
2.53661e-05
2.60614e-05
2.68485e-05
2.75779e-05
2.84118e-05
2.92548e-05
3.02994e-05
3.1138e-05
3.20614e-05
3.28421e-05
3.36107e-05
3.42943e-05
3.50319e-05
3.55844e-05
3.57691e-05
3.61939e-05
3.67023e-05
3.67855e-05
3.67441e-05
3.69873e-05
3.70976e-05
3.66633e-05
3.66404e-05
3.64569e-05
3.58309e-05
3.55738e-05
3.50779e-05
3.45349e-05
3.41793e-05
3.33587e-05
3.26214e-05
3.20519e-05
3.12084e-05
3.03545e-05
2.95622e-05
2.86095e-05
2.76204e-05
2.66019e-05
2.55308e-05
2.47088e-05
2.35158e-05
2.23943e-05
2.11627e-05
1.99217e-05
1.87206e-05
1.73734e-05
1.60537e-05
1.4784e-05
1.34266e-05
1.21747e-05
1.08215e-05
9.60553e-06
8.24945e-06
7.1814e-06
5.83691e-06
5.01606e-06
3.8399e-06
3.27705e-06
2.36455e-06
2.01555e-06
1.3903e-06
1.26721e-06
7.95261e-07
8.17307e-07
5.23007e-07
6.24299e-07
4.02428e-07
5.16648e-07
3.83782e-07
4.87426e-07
3.70211e-07
5.07813e-07
3.5581e-07
4.9431e-07
3.70571e-07
4.60885e-07
3.76871e-07
4.41889e-07
3.77121e-07
4.58249e-07
3.71893e-07
4.68672e-07
3.74497e-07
4.85496e-07
3.79352e-07
4.66902e-07
3.69848e-07
4.50728e-07
3.73641e-07
4.51582e-07
3.94315e-07
4.57371e-07
3.99765e-07
4.60597e-07
4.23334e-07
4.69133e-07
4.09839e-07
4.32993e-07
3.94968e-07
4.44427e-07
4.20619e-07
4.49556e-07
4.01936e-07
4.12966e-07
3.81223e-07
4.15311e-07
4.22896e-07
4.61387e-07
4.64838e-07
4.40465e-07
4.56144e-07
4.22676e-07
4.21638e-07
4.0265e-07
3.56848e-07
3.49103e-07
3.91479e-07
3.39786e-07
4.24859e-07
4.89091e-07
3.19799e-07
3.72222e-07
3.38816e-07
3.73815e-07
3.76858e-07
3.85559e-07
4.06588e-07
3.81024e-07
4.06091e-07
3.72342e-07
4.0722e-07
3.96515e-07
4.04919e-07
4.33445e-07
3.8162e-07
4.75109e-07
3.39841e-07
5.05679e-07
2.99561e-07
5.27469e-07
2.97504e-07
5.43524e-07
3.2429e-07
5.59081e-07
3.25322e-07
5.52631e-07
2.46698e-07
5.66925e-07
2.05492e-07
5.79559e-07
2.49914e-07
5.30523e-07
3.63468e-07
4.53856e-07
5.40444e-07
2.33698e-07
8.06283e-07
1.20525e-07
7.02523e-07
5.20975e-07
5.28913e-07
7.04192e-07
8.70236e-07
8.4231e-07
1.53352e-06
1.40241e-06
2.68464e-06
3.19387e-06
4.28028e-06
5.87833e-06
6.41725e-06
8.28193e-06