/*--------------------------------*- C++ -*----------------------------------*\
| =========                 |                                                 |
| \\      /  F ield         | OpenFOAM: The Open Source CFD Toolbox           |
|  \\    /   O peration     | Version:  v2006                                 |
|   \\  /    A nd           | Website:  www.openfoam.com                      |
|    \\/     M anipulation  |                                                 |
\*---------------------------------------------------------------------------*/
FoamFile
{
    version     2.0;
    format      ascii;
    class       volScalarField;
    location    "100";
    object      p;
}
// * * * * * * * * * * * * * * * * * * * * * * * * * * * * * * * * * * * * * //

dimensions      [1 -1 -2 0 0 0 0];


internalField   nonuniform List<scalar> 
93840
(
1.01149
1.01757
1.01425
1.02048
1.01196
1.00959
1.00572
1.01312
1.01263
1.01267
1.01998
1.01603
1.02503
1.02931
1.03107
1.03957
1.04575
1.04873
1.05042
1.05068
1.04919
1.04741
1.04398
1.04802
1.04682
1.02481
1.03199
1.04352
1.02527
1.03551
1.02869
1.04522
1.03134
1.03596
1.04528
1.04602
1.05184
1.05446
1.05782
1.06008
1.06516
1.06501
1.06859
1.07061
1.07413
1.07501
1.07899
1.07909
1.08195
1.08297
1.08562
1.08695
1.09017
1.09108
1.09265
1.0931
1.09423
1.09409
1.09752
1.09969
1.09915
1.1011
1.10212
1.1025
1.10244
1.10319
1.10379
1.10292
1.10317
1.10276
1.10312
1.10262
1.10227
1.101
1.10053
1.09933
1.09853
1.09722
1.09598
1.09461
1.093
1.09166
1.08987
1.08784
1.0858
1.08349
1.08117
1.07867
1.07631
1.07379
1.07054
1.06719
1.06368
1.05996
1.05602
1.05157
1.04719
1.04259
1.03784
1.03257
1.02705
1.02151
1.01582
1.00631
0.996397
0.99271
0.989651
0.982055
0.973775
0.965459
0.957329
0.949191
0.941539
0.93218
0.923656
0.914882
0.906877
0.897189
0.88987
0.882605
0.878014
0.872469
0.871936
0.868487
0.872526
0.878554
0.877544
0.890019
0.889576
0.899602
0.906164
0.915888
0.919998
0.928944
0.933069
0.940393
0.949079
0.954104
0.961668
0.967577
0.973603
0.978506
0.985295
0.991098
0.995999
1.00128
1.00712
1.01292
1.01877
1.02604
1.03143
1.03807
1.04367
1.05151
1.0578
1.06443
1.07213
1.07844
1.08808
1.09496
1.10313
1.11025
1.11906
1.12705
1.1373
1.14726
1.15807
1.17012
1.18097
1.19245
1.20704
1.22319
1.23875
1.25361
1.27148
1.29242
1.31451
1.3405
1.36457
1.38899
1.40251
1.41571
1.38365
1.31811
1.19792
1.06684
0.927833
0.837366
0.793702
0.78784
0.711898
0.664768
0.610332
0.592997
0.584783
0.558832
0.564576
0.552175
0.552261
0.545769
0.552043
0.554611
0.555804
0.556386
0.55837
0.560213
0.562678
0.563645
0.565892
0.566917
0.568344
0.569507
0.570459
0.570727
0.572426
0.573393
0.574469
0.574518
0.574453
0.572548
0.57018
0.566069
0.567749
0.568684
0.570277
0.571345
0.572922
0.574117
0.576113
0.576992
0.575616
0.570436
0.568657
0.564236
0.56057
0.561359
0.560508
0.559806
0.559385
0.558314
0.557459
0.556338
0.555381
0.553154
0.552347
0.550435
0.550127
0.541513
0.54507
0.543737
0.546262
0.566719
0.642551
0.756123
0.80711
0.819355
0.825406
0.832576
0.838659
0.844829
0.849691
0.855388
0.860644
0.866592
0.872399
0.878791
0.884422
0.891012
0.899677
0.908233
0.912609
0.91725
0.924581
0.932989
0.938441
0.94301
0.948433
0.954827
0.960618
0.966025
0.97123
0.976361
0.981301
0.986077
0.990603
0.99507
0.998965
1.00291
1.00639
1.0097
1.01285
1.0156
1.01828
1.02038
1.02257
1.02393
1.02536
1.02615
1.02687
1.02732
1.02728
1.02706
1.02731
1.02729
1.02749
1.02752
1.02742
1.02735
1.0275
1.02669
1.0275
1.02685
1.02758
1.02664
1.02723
1.02646
1.02716
1.02621
1.02707
1.02606
1.02673
1.0266
1.02753
1.02558
1.02742
1.02629
1.02752
1.02636
1.02707
1.02636
1.02769
1.0289
1.03033
1.02268
1.02555
1.03075
1.0229
1.02691
1.02826
1.02713
1.04988
1.0341
1.02344
1.04888
1.04856
1.04332
1.0471
1.05082
1.05018
1.05111
1.04885
1.04482
1.03932
1.03128
1.02894
1.02517
1.01565
1.01964
1.01283
1.01217
1.01319
1.00588
1.00929
1.01159
1.01996
1.01431
1.0177
1.01155
1.01176
1.01769
1.01414
1.01989
1.01161
1.00924
1.006
1.0132
1.01214
1.01297
1.01959
1.01569
1.02521
1.02905
1.03129
1.03927
1.04547
1.04854
1.05116
1.05029
1.05046
1.04732
1.0434
1.04707
1.04712
1.02854
1.03464
1.04107
1.03069
1.0346
1.03304
1.02836
1.03795
1.03632
1.04585
1.04637
1.0507
1.05461
1.05627
1.05983
1.06392
1.06501
1.06765
1.07071
1.0729
1.07477
1.07794
1.07901
1.08127
1.08268
1.08503
1.08666
1.08956
1.09013
1.09199
1.09328
1.0938
1.09405
1.09692
1.09928
1.09885
1.1005
1.10175
1.10225
1.10188
1.10295
1.10342
1.10268
1.10279
1.10257
1.10289
1.1024
1.10197
1.10082
1.10038
1.09912
1.09832
1.09704
1.09583
1.09447
1.09285
1.0915
1.08971
1.08771
1.08569
1.08338
1.08107
1.07856
1.0762
1.07366
1.07044
1.06711
1.06361
1.05989
1.05596
1.05152
1.04716
1.04256
1.03781
1.03256
1.02706
1.02148
1.01574
1.00641
0.99671
0.992875
0.989587
0.982066
0.973913
0.965642
0.957548
0.949426
0.941778
0.932488
0.924051
0.915329
0.907315
0.897735
0.890476
0.883244
0.878605
0.87314
0.872459
0.869321
0.874741
0.87928
0.878105
0.890541
0.890296
0.900322
0.90674
0.916284
0.920458
0.929293
0.933574
0.940704
0.94949
0.954482
0.961997
0.968153
0.973931
0.978996
0.98583
0.991257
0.9966
1.00163
1.0078
1.01329
1.01984
1.02636
1.03245
1.0389
1.0444
1.05252
1.05863
1.06563
1.07335
1.08012
1.08944
1.09638
1.10472
1.11165
1.12118
1.1289
1.13978
1.15002
1.16099
1.17323
1.18516
1.19728
1.21161
1.22701
1.24292
1.26049
1.27839
1.29817
1.31747
1.33869
1.35945
1.3816
1.389
1.39936
1.3696
1.33181
1.25087
1.14796
1.03255
0.934163
0.863705
0.836419
0.756954
0.705313
0.650337
0.63073
0.60989
0.57781
0.58036
0.564899
0.564497
0.554807
0.558868
0.559906
0.560824
0.561184
0.562464
0.563543
0.565533
0.566457
0.568586
0.569389
0.570782
0.571541
0.572271
0.572403
0.573861
0.574768
0.575713
0.575795
0.575829
0.573373
0.571452
0.567535
0.568591
0.569326
0.570827
0.571941
0.573505
0.574618
0.576668
0.577392
0.576325
0.571038
0.569524
0.564936
0.56106
0.561457
0.561103
0.560453
0.559528
0.558484
0.558106
0.556964
0.555587
0.553596
0.552584
0.550733
0.550549
0.541893
0.545271
0.54427
0.546717
0.566497
0.642485
0.757585
0.807371
0.819367
0.825403
0.83265
0.838745
0.844919
0.849782
0.855491
0.860762
0.866716
0.87252
0.878911
0.884594
0.891214
0.899752
0.908192
0.912681
0.917467
0.924727
0.932982
0.93845
0.943128
0.948572
0.954911
0.960677
0.966095
0.971305
0.976436
0.981374
0.986148
0.990668
0.995127
0.999022
1.00297
1.00644
1.00975
1.0129
1.01565
1.01832
1.02041
1.02258
1.02395
1.02537
1.02618
1.02685
1.02731
1.02736
1.02707
1.02751
1.02733
1.02767
1.02725
1.02742
1.02728
1.02746
1.02707
1.02767
1.02694
1.02759
1.02663
1.02743
1.02625
1.02693
1.02618
1.0268
1.02628
1.02713
1.02624
1.02738
1.02648
1.0275
1.02661
1.02789
1.02599
1.02789
1.02412
1.02673
1.02729
1.02921
1.02608
1.02964
1.02011
1.02762
1.0268
1.02402
1.0254
1.04441
1.02496
1.01728
1.04937
1.04828
1.04367
1.04723
1.04946
1.05046
1.05065
1.04893
1.04611
1.03958
1.03075
1.02949
1.02492
1.0161
1.01979
1.01265
1.01259
1.01304
1.00569
1.00961
1.01191
1.02046
1.01413
1.01753
1.01154
1.01159
1.01769
1.01424
1.02045
1.01189
1.00961
1.00588
1.01324
1.01265
1.01274
1.02003
1.01595
1.02515
1.02931
1.03119
1.03967
1.04571
1.04843
1.05051
1.05055
1.04911
1.04785
1.04418
1.04802
1.04681
1.02875
1.03222
1.04418
1.03283
1.03579
1.03718
1.04349
1.03835
1.04379
1.04559
1.04871
1.05186
1.05452
1.05785
1.05915
1.0639
1.06514
1.06771
1.07032
1.07301
1.07494
1.07759
1.07907
1.08102
1.08263
1.08479
1.08663
1.08883
1.09036
1.09147
1.09303
1.09354
1.09408
1.09685
1.09909
1.09858
1.10036
1.1015
1.10197
1.10188
1.10275
1.1032
1.10254
1.10279
1.10234
1.10278
1.1022
1.10192
1.10066
1.10027
1.09895
1.09825
1.09693
1.09571
1.09439
1.09275
1.09141
1.08961
1.08763
1.08561
1.08331
1.08099
1.07849
1.07612
1.07358
1.07037
1.06705
1.06355
1.05984
1.05591
1.05149
1.04713
1.04254
1.03779
1.03254
1.02705
1.02147
1.0157
1.00643
0.996844
0.99297
0.989599
0.982088
0.973987
0.96574
0.957673
0.949582
0.941938
0.932687
0.924274
0.915542
0.907605
0.898062
0.890891
0.883649
0.87903
0.873565
0.873145
0.870155
0.874091
0.87954
0.878373
0.891544
0.890992
0.900553
0.907606
0.917001
0.920946
0.930057
0.934217
0.941518
0.950114
0.955134
0.962439
0.968643
0.97446
0.979484
0.986233
0.991996
0.997084
1.00235
1.00826
1.01411
1.01999
1.02711
1.03278
1.03937
1.04539
1.05282
1.05957
1.06618
1.07388
1.08068
1.08989
1.09701
1.10552
1.11304
1.12171
1.13076
1.14056
1.15071
1.16235
1.17369
1.18504
1.19791
1.21248
1.22805
1.24381
1.25926
1.2776
1.29796
1.31995
1.34381
1.36552
1.38922
1.39664
1.4105
1.37742
1.33602
1.24888
1.14898
1.02976
0.942219
0.869825
0.841081
0.771069
0.72077
0.663055
0.636942
0.616565
0.586995
0.5871
0.571807
0.569363
0.559505
0.561831
0.563012
0.563797
0.563601
0.564837
0.565807
0.567749
0.568264
0.569873
0.570889
0.57215
0.572686
0.573457
0.573695
0.574885
0.575539
0.576729
0.576292
0.576071
0.575051
0.572264
0.567677
0.568975
0.569731
0.571266
0.572381
0.57378
0.574998
0.576906
0.57786
0.57668
0.571827
0.569502
0.565407
0.561474
0.562181
0.561061
0.560389
0.560101
0.559042
0.558176
0.556914
0.556128
0.553819
0.553112
0.551197
0.550997
0.542133
0.545367
0.544462
0.546765
0.566277
0.642158
0.757052
0.808033
0.819944
0.825591
0.832771
0.838882
0.845031
0.849887
0.855586
0.86085
0.866807
0.872606
0.878999
0.884695
0.891317
0.899813
0.908213
0.912738
0.917557
0.924779
0.932993
0.938474
0.943186
0.948635
0.954955
0.960714
0.96613
0.971338
0.976466
0.981399
0.986175
0.990692
0.995144
0.999048
1.00299
1.00646
1.00976
1.0129
1.01564
1.01829
1.02037
1.02255
1.02393
1.02535
1.02617
1.02686
1.02722
1.02726
1.02692
1.02723
1.02723
1.02747
1.02745
1.02736
1.02722
1.02745
1.02722
1.02736
1.02688
1.02758
1.02669
1.02755
1.0263
1.0272
1.02621
1.027
1.02605
1.027
1.02629
1.02692
1.02689
1.02775
1.02679
1.02768
1.02634
1.02778
1.02521
1.02615
1.02714
1.02855
1.02881
1.02772
1.0218
1.02489
1.03276
1.02766
1.0295
1.04966
1.02892
1.02203
1.05168
1.04968
1.04306
1.04693
1.05096
1.05011
1.05106
1.04913
1.04505
1.03924
1.03136
1.02903
1.02514
1.01567
1.01984
1.01291
1.01216
1.0132
1.0061
1.0093
1.01171
1.02009
1.01424
1.01779
1.01158
1.01169
1.01754
1.01424
1.01989
1.01178
1.009
1.0054
1.01313
1.01211
1.01289
1.01954
1.01568
1.02533
1.02908
1.03125
1.03926
1.04552
1.04824
1.05127
1.05025
1.04989
1.04771
1.04365
1.04798
1.04687
1.03092
1.03857
1.04359
1.03276
1.03817
1.03447
1.03866
1.03934
1.04334
1.04487
1.04947
1.04995
1.05567
1.05619
1.05979
1.06364
1.06434
1.06771
1.06991
1.07266
1.07351
1.07764
1.07839
1.08105
1.08211
1.08465
1.08601
1.08876
1.08907
1.09173
1.09269
1.09327
1.0937
1.09668
1.09857
1.0983
1.0998
1.10107
1.10172
1.10137
1.10249
1.10287
1.10215
1.10247
1.10218
1.10253
1.10196
1.10164
1.10046
1.10015
1.09875
1.09802
1.09678
1.09556
1.09425
1.09261
1.09126
1.08946
1.0875
1.08549
1.0832
1.08089
1.07839
1.07601
1.07346
1.07028
1.06698
1.06348
1.05979
1.05585
1.05144
1.0471
1.0425
1.03776
1.03254
1.02707
1.02147
1.01567
1.00653
0.997105
0.993128
0.989557
0.982126
0.974135
0.965933
0.957903
0.94983
0.942204
0.932993
0.924669
0.916013
0.90801
0.898612
0.891451
0.88426
0.879501
0.87424
0.873612
0.87078
0.876112
0.880434
0.878978
0.891593
0.891269
0.901274
0.907724
0.916932
0.921264
0.929588
0.93441
0.941197
0.950069
0.955203
0.962532
0.96884
0.974463
0.979525
0.986636
0.991765
0.997562
1.00252
1.00878
1.0141
1.02099
1.02699
1.03366
1.04004
1.04566
1.05382
1.05995
1.06726
1.07474
1.08207
1.091
1.09821
1.10692
1.1139
1.12345
1.13188
1.14218
1.15244
1.1641
1.17606
1.1882
1.20095
1.21507
1.23096
1.24652
1.26358
1.2813
1.30106
1.32085
1.34313
1.3615
1.37737
1.38483
1.39303
1.37496
1.34006
1.2702
1.1865
1.08285
0.993572
0.915243
0.877214
0.801531
0.747549
0.689828
0.662922
0.635907
0.601733
0.59832
0.578997
0.577414
0.566557
0.567877
0.5676
0.567835
0.567486
0.568366
0.568616
0.569936
0.570406
0.572365
0.572655
0.573911
0.574459
0.575579
0.575358
0.576472
0.576872
0.577658
0.577599
0.577301
0.575473
0.573969
0.569146
0.569946
0.570418
0.571957
0.572867
0.574347
0.575427
0.577487
0.578292
0.577403
0.572202
0.570933
0.565938
0.561874
0.562358
0.561778
0.560994
0.560065
0.559217
0.559045
0.557533
0.556086
0.554603
0.55298
0.551225
0.551487
0.5427
0.545643
0.545071
0.546812
0.565955
0.642147
0.757563
0.809293
0.82022
0.82564
0.832921
0.839018
0.845163
0.849989
0.855689
0.86098
0.866939
0.872745
0.879132
0.884865
0.891507
0.899889
0.908198
0.912812
0.917749
0.924934
0.93302
0.938506
0.943295
0.948759
0.955037
0.960776
0.966201
0.97142
0.976551
0.981485
0.98626
0.990769
0.995213
0.999112
1.00305
1.00651
1.0098
1.01292
1.01566
1.01831
1.02037
1.02253
1.02392
1.02536
1.02614
1.02685
1.0273
1.02726
1.02712
1.02742
1.02734
1.0276
1.02753
1.02755
1.02705
1.02759
1.02701
1.02747
1.02675
1.02739
1.02676
1.02743
1.02632
1.0275
1.02601
1.02754
1.02567
1.02719
1.0256
1.02667
1.027
1.0277
1.02633
1.02761
1.02671
1.02792
1.02519
1.02667
1.02521
1.02712
1.0268
1.02876
1.02283
1.02772
1.0281
1.02694
1.02707
1.04365
1.01906
1.01717
1.05045
1.04887
1.04325
1.04715
1.04948
1.05059
1.05092
1.04918
1.04605
1.0395
1.03062
1.02944
1.02492
1.01619
1.01976
1.01236
1.01252
1.01303
1.00564
1.00968
1.01181
1.02049
1.0141
1.01748
1.0115
1.01171
1.01767
1.01428
1.0204
1.01191
1.00953
1.00628
1.01326
1.01273
1.01277
1.02003
1.01587
1.02516
1.02926
1.03119
1.03962
1.04569
1.04835
1.05054
1.05026
1.04957
1.04808
1.04402
1.04734
1.04599
1.03378
1.03459
1.04311
1.03769
1.04056
1.039
1.04422
1.04186
1.04663
1.0471
1.05022
1.05282
1.05479
1.05841
1.05956
1.06338
1.06505
1.06775
1.06937
1.07272
1.07371
1.0774
1.07861
1.08098
1.08209
1.08418
1.08606
1.08768
1.08948
1.09118
1.09232
1.09289
1.09395
1.09621
1.09833
1.09816
1.09958
1.1009
1.10137
1.10114
1.1023
1.10261
1.10209
1.10221
1.10194
1.10243
1.10172
1.10152
1.10024
1.09997
1.09856
1.09789
1.09661
1.09541
1.09411
1.09248
1.09112
1.08933
1.08738
1.08539
1.0831
1.08079
1.07829
1.07591
1.07335
1.07017
1.06689
1.06339
1.0597
1.05578
1.05139
1.04706
1.04247
1.03774
1.03251
1.02705
1.02144
1.01562
1.00655
0.997285
0.993253
0.989591
0.982153
0.974231
0.96606
0.958069
0.950044
0.94241
0.933269
0.924974
0.916306
0.90841
0.899033
0.892009
0.884761
0.880078
0.874651
0.874191
0.871493
0.876913
0.880625
0.87955
0.892602
0.892521
0.901619
0.909016
0.917978
0.922044
0.931047
0.935443
0.942472
0.95121
0.956107
0.963078
0.969755
0.975196
0.980386
0.987333
0.99265
0.998166
1.00325
1.00942
1.01492
1.02162
1.0278
1.03431
1.04043
1.04669
1.05403
1.06083
1.06783
1.07541
1.0829
1.09131
1.09885
1.10747
1.11461
1.12394
1.13292
1.1432
1.15332
1.16546
1.17597
1.18805
1.20098
1.21538
1.23042
1.24645
1.26242
1.28001
1.29958
1.32019
1.34102
1.36034
1.3771
1.38228
1.39037
1.36442
1.33305
1.26008
1.18115
1.07552
0.99726
0.919535
0.877511
0.809727
0.75908
0.699351
0.668589
0.641867
0.611266
0.60577
0.586379
0.584295
0.571156
0.572072
0.571324
0.571472
0.570718
0.571062
0.570898
0.572079
0.572427
0.574029
0.574525
0.575747
0.575844
0.576637
0.576767
0.577583
0.577898
0.578714
0.578229
0.578313
0.576617
0.574568
0.570505
0.570714
0.570965
0.572235
0.573464
0.574649
0.575991
0.577808
0.578909
0.578002
0.573155
0.570638
0.566825
0.562366
0.562579
0.562159
0.561629
0.560623
0.559371
0.5591
0.558087
0.556882
0.554233
0.553954
0.552085
0.551851
0.542716
0.545733
0.545283
0.547013
0.564839
0.640713
0.75834
0.810888
0.821168
0.826009
0.833101
0.83926
0.845356
0.850174
0.855853
0.861114
0.867075
0.872867
0.879256
0.885004
0.891644
0.899987
0.908246
0.912898
0.917858
0.92497
0.933018
0.938529
0.943362
0.948832
0.955086
0.960817
0.966236
0.971442
0.976564
0.981483
0.986258
0.990766
0.9952
0.999114
1.00304
1.00651
1.00979
1.0129
1.01561
1.01822
1.0203
1.02245
1.02386
1.02527
1.02612
1.0268
1.02719
1.02716
1.027
1.02718
1.02721
1.02741
1.02752
1.02734
1.0274
1.02752
1.02683
1.02766
1.02685
1.0275
1.02651
1.02739
1.02636
1.02683
1.02604
1.02697
1.0263
1.02722
1.02596
1.02702
1.02673
1.02764
1.02616
1.02709
1.02676
1.02778
1.02581
1.02686
1.02374
1.02628
1.02853
1.02836
1.02603
1.02734
1.02833
1.02707
1.03314
1.0443
1.02375
1.02243
1.05225
1.05025
1.04266
1.04678
1.0513
1.05001
1.05131
1.04917
1.04488
1.03926
1.03126
1.02899
1.02513
1.01562
1.01966
1.01311
1.01217
1.01329
1.00606
1.00933
1.01171
1.02013
1.01421
1.01753
1.01143
1.01153
1.01737
1.01428
1.01991
1.01183
1.00892
1.00546
1.01315
1.01214
1.01292
1.01964
1.01572
1.0254
1.02911
1.03121
1.0394
1.04545
1.04815
1.05106
1.05017
1.04971
1.04804
1.04373
1.04793
1.04563
1.03668
1.03826
1.04316
1.03661
1.0405
1.03865
1.0413
1.04412
1.04493
1.04867
1.0493
1.05298
1.05444
1.05822
1.05859
1.064
1.06389
1.06716
1.06955
1.07189
1.07345
1.07644
1.07881
1.08012
1.08186
1.08347
1.08623
1.08722
1.0889
1.0907
1.09204
1.09243
1.09359
1.09616
1.09765
1.09774
1.09919
1.10026
1.10099
1.10069
1.10198
1.10223
1.10168
1.10201
1.10159
1.10213
1.10136
1.10129
1.09998
1.09971
1.09833
1.09765
1.09641
1.0952
1.09392
1.09229
1.09092
1.08914
1.0872
1.08523
1.08294
1.08065
1.07814
1.07575
1.07319
1.07005
1.06678
1.0633
1.05962
1.05569
1.05132
1.04699
1.0424
1.03768
1.03249
1.02705
1.02144
1.01558
1.00663
0.997535
0.993437
0.989542
0.982201
0.974398
0.966282
0.958338
0.950338
0.942741
0.933621
0.925424
0.916841
0.90886
0.899678
0.892654
0.885532
0.880699
0.875759
0.875386
0.872728
0.876483
0.881791
0.880719
0.892825
0.892496
0.902524
0.908929
0.917877
0.922338
0.930331
0.935385
0.942224
0.95076
0.956107
0.963369
0.969398
0.975411
0.980205
0.987488
0.992735
0.998503
1.00391
1.00989
1.01553
1.0221
1.02818
1.03493
1.04131
1.04726
1.05533
1.06143
1.06899
1.07615
1.08374
1.09231
1.09993
1.10886
1.1163
1.12572
1.13505
1.14487
1.15501
1.16685
1.17886
1.19101
1.20417
1.21792
1.23346
1.24831
1.26516
1.28254
1.30131
1.3199
1.33966
1.35548
1.37143
1.37693
1.38567
1.36374
1.33449
1.27431
1.20663
1.11586
1.03489
0.957794
0.909337
0.839731
0.784948
0.726272
0.694557
0.665712
0.625511
0.61952
0.596198
0.590334
0.579671
0.576636
0.572126
0.574457
0.574378
0.574624
0.573791
0.5746
0.574438
0.57603
0.576646
0.577712
0.577863
0.57825
0.578237
0.578788
0.579378
0.580127
0.579519
0.579262
0.578527
0.576265
0.570652
0.571503
0.57192
0.573174
0.574016
0.575475
0.576574
0.578485
0.579477
0.578591
0.573801
0.572455
0.56715
0.563088
0.563661
0.562479
0.561685
0.561305
0.560235
0.559696
0.558215
0.557385
0.555379
0.553772
0.55195
0.55255
0.543657
0.546095
0.545998
0.546931
0.563776
0.639675
0.759816
0.812708
0.821736
0.826134
0.83338
0.839483
0.845573
0.850336
0.856003
0.861301
0.867253
0.873061
0.879432
0.885205
0.891846
0.900046
0.908234
0.912985
0.918049
0.925138
0.93306
0.938576
0.943465
0.948934
0.955148
0.960859
0.966286
0.97151
0.976637
0.981563
0.986337
0.990831
0.995254
0.999161
1.00307
1.00653
1.00978
1.01289
1.0156
1.01822
1.02028
1.02239
1.02381
1.02523
1.02605
1.02677
1.02724
1.0272
1.02708
1.02754
1.02713
1.02764
1.02715
1.02766
1.02736
1.02746
1.02696
1.02763
1.02692
1.02773
1.02656
1.02731
1.02624
1.02703
1.02636
1.02649
1.02639
1.02695
1.02643
1.0281
1.02601
1.02756
1.02547
1.02738
1.02657
1.02724
1.02628
1.02875
1.02351
1.02621
1.02631
1.02709
1.02521
1.02857
1.0272
1.02973
1.02746
1.04113
1.01647
1.0204
1.05102
1.04826
1.04289
1.04707
1.04964
1.0507
1.05133
1.0495
1.04622
1.03964
1.03061
1.02966
1.02483
1.0162
1.01983
1.01232
1.01251
1.01299
1.00565
1.00976
1.01175
1.02048
1.01411
1.01753
1.01147
1.01175
1.01757
1.0143
1.02035
1.01196
1.00943
1.00626
1.01328
1.0128
1.01277
1.02017
1.01577
1.0252
1.02922
1.03127
1.03946
1.04563
1.04818
1.05054
1.0501
1.04954
1.04824
1.04412
1.04781
1.04547
1.03543
1.0378
1.04296
1.03981
1.04323
1.04196
1.04555
1.0448
1.04815
1.04931
1.05144
1.05437
1.05556
1.05866
1.06005
1.06321
1.06494
1.06774
1.06864
1.07205
1.07344
1.07617
1.07909
1.08031
1.08149
1.08368
1.08557
1.0869
1.08869
1.09046
1.09128
1.09223
1.09365
1.0957
1.09731
1.0975
1.09899
1.09999
1.10063
1.10046
1.10169
1.10192
1.10146
1.10164
1.10146
1.1019
1.10111
1.10108
1.09971
1.09948
1.09816
1.09742
1.09621
1.09502
1.09373
1.09212
1.09075
1.08898
1.08705
1.08509
1.08281
1.08051
1.07802
1.07562
1.07305
1.0699
1.06666
1.06318
1.0595
1.05561
1.05125
1.04694
1.04238
1.03765
1.03246
1.02703
1.02141
1.01552
1.00665
0.997762
0.99359
0.989603
0.982241
0.974521
0.96644
0.958544
0.950608
0.94299
0.933966
0.925808
0.91722
0.909348
0.900167
0.893333
0.886135
0.881467
0.876235
0.87602
0.87298
0.878313
0.882091
0.881857
0.893594
0.893845
0.90342
0.910018
0.919254
0.923159
0.931993
0.936722
0.94339
0.952235
0.957051
0.963854
0.970628
0.976228
0.981302
0.988503
0.993536
0.999156
1.00437
1.01045
1.01611
1.02297
1.02893
1.0357
1.04162
1.04792
1.05538
1.06222
1.06941
1.07713
1.08475
1.0928
1.10087
1.10918
1.11681
1.1263
1.1353
1.14593
1.15591
1.16754
1.17848
1.19084
1.20358
1.21814
1.23216
1.24768
1.26368
1.281
1.29932
1.31792
1.33635
1.35293
1.36722
1.36998
1.37702
1.35181
1.3241
1.26319
1.19964
1.1092
1.03411
0.958248
0.910564
0.844588
0.796041
0.734015
0.698989
0.669118
0.634743
0.626778
0.600571
0.599556
0.583198
0.582189
0.580898
0.577931
0.576886
0.57701
0.576641
0.5772
0.577067
0.578048
0.57864
0.579043
0.579789
0.580042
0.579993
0.579985
0.580258
0.58106
0.580763
0.580257
0.578628
0.577471
0.57282
0.57229
0.572599
0.573641
0.574457
0.576098
0.577071
0.578918
0.579986
0.579424
0.574577
0.572562
0.568101
0.563479
0.563763
0.563482
0.562539
0.561246
0.560359
0.560221
0.559092
0.557553
0.555215
0.55481
0.552899
0.552938
0.543755
0.546297
0.546255
0.547073
0.562462
0.63816
0.76124
0.814803
0.823046
0.826663
0.833601
0.83982
0.845839
0.8506
0.85624
0.861488
0.867443
0.873222
0.8796
0.885393
0.892033
0.900204
0.908323
0.913106
0.918186
0.92517
0.933055
0.938603
0.943547
0.94903
0.955217
0.96092
0.966334
0.971533
0.976644
0.981543
0.986314
0.990811
0.995225
0.999148
1.00305
1.00652
1.00979
1.01285
1.01552
1.0181
1.02018
1.02227
1.02373
1.02511
1.02597
1.0267
1.02707
1.02711
1.02703
1.02714
1.02723
1.02733
1.02745
1.0274
1.02727
1.02747
1.02705
1.02759
1.02678
1.02761
1.0267
1.02741
1.02629
1.02745
1.02617
1.02665
1.02642
1.02649
1.02661
1.02744
1.02647
1.02749
1.02638
1.02727
1.02657
1.02669
1.02767
1.02865
1.02446
1.02529
1.02547
1.02759
1.02689
1.02709
1.0265
1.02846
1.0304
1.03718
1.02034
1.02658
1.05249
1.04873
1.04308
1.04678
1.05118
1.05005
1.05133
1.04933
1.04464
1.03929
1.03072
1.02888
1.02511
1.01557
1.01963
1.01308
1.0122
1.01315
1.00593
1.0095
1.01188
1.02018
1.01407
1.01757
1.01147
1.01134
1.01766
1.01442
1.01992
1.01181
1.00894
1.00556
1.01313
1.01212
1.01285
1.01969
1.01565
1.02545
1.02892
1.03119
1.03893
1.04537
1.04803
1.05115
1.05001
1.04994
1.04816
1.04436
1.04884
1.04577
1.0366
1.04252
1.04294
1.0402
1.04216
1.04256
1.0452
1.04547
1.04755
1.04945
1.052
1.05346
1.05642
1.0578
1.06026
1.0623
1.06472
1.0659
1.06944
1.07178
1.07276
1.07614
1.07832
1.08022
1.08027
1.08363
1.08518
1.0867
1.08827
1.0895
1.09096
1.09185
1.09338
1.09533
1.09674
1.09715
1.09844
1.0996
1.1002
1.09974
1.10133
1.10154
1.10117
1.10135
1.10088
1.10161
1.1007
1.1008
1.09941
1.09908
1.09787
1.09719
1.09591
1.09478
1.09348
1.09189
1.0905
1.08873
1.08683
1.08488
1.0826
1.08033
1.07782
1.07542
1.07285
1.06975
1.06652
1.06305
1.05939
1.05548
1.05114
1.04685
1.04227
1.03756
1.03242
1.02701
1.02141
1.01549
1.00672
0.997997
0.993799
0.989552
0.982297
0.974707
0.966689
0.958845
0.950938
0.943381
0.934367
0.926312
0.917791
0.909828
0.900874
0.894003
0.887011
0.88211
0.877408
0.876877
0.874472
0.879005
0.883458
0.882345
0.893955
0.89416
0.903848
0.91011
0.919058
0.923263
0.931595
0.936326
0.94347
0.951653
0.9569
0.964351
0.970071
0.976425
0.981093
0.988288
0.993628
0.999371
1.00519
1.01107
1.01708
1.02342
1.02949
1.03633
1.04245
1.0489
1.05673
1.06276
1.07051
1.07757
1.08563
1.09357
1.10191
1.11053
1.1182
1.12775
1.13725
1.14739
1.15747
1.16925
1.18116
1.19327
1.20687
1.21987
1.23454
1.24919
1.266
1.28245
1.29964
1.31637
1.33389
1.34774
1.36054
1.36372
1.37174
1.34724
1.3258
1.27419
1.215
1.13951
1.06543
0.992107
0.937449
0.874727
0.819862
0.760706
0.72482
0.692825
0.64871
0.638585
0.612942
0.606758
0.589203
0.588087
0.582366
0.582387
0.581267
0.578725
0.578544
0.578204
0.579048
0.579784
0.580918
0.581246
0.581577
0.58199
0.581673
0.581842
0.581656
0.582025
0.581861
0.581915
0.580888
0.578472
0.572779
0.573299
0.573512
0.574504
0.575218
0.576655
0.577659
0.579465
0.580441
0.580315
0.575822
0.573807
0.568894
0.564596
0.564524
0.5637
0.563046
0.562318
0.560882
0.560449
0.559718
0.558831
0.555815
0.554947
0.552981
0.553754
0.54456
0.546603
0.547004
0.546997
0.561181
0.636567
0.763213
0.817429
0.82388
0.826856
0.834012
0.840128
0.846137
0.850828
0.856448
0.861742
0.867676
0.873478
0.879822
0.885628
0.892249
0.900249
0.908319
0.913213
0.918383
0.925361
0.933118
0.938667
0.943644
0.94911
0.955256
0.960938
0.966362
0.971586
0.976706
0.981619
0.986387
0.990864
0.995261
0.999176
1.00304
1.00651
1.00972
1.01281
1.01548
1.01808
1.02014
1.0222
1.02365
1.02501
1.02588
1.02665
1.02703
1.02714
1.02714
1.02731
1.02724
1.02755
1.02716
1.02775
1.02706
1.0275
1.027
1.02765
1.02694
1.0274
1.02676
1.02752
1.02627
1.02736
1.02591
1.02725
1.02588
1.02702
1.0261
1.02637
1.02659
1.02747
1.0271
1.02865
1.02512
1.02697
1.02588
1.02745
1.02502
1.02758
1.02448
1.02845
1.02679
1.0285
1.02609
1.03121
1.028
1.03799
1.01945
1.02747
1.05053
1.04645
1.0431
1.04705
1.04995
1.05068
1.05169
1.04979
1.04629
1.03947
1.03076
1.02959
1.02483
1.01615
1.01981
1.0122
1.0125
1.01301
1.00566
1.00979
1.01165
1.02049
1.01418
1.01738
1.01142
1.01164
1.0177
1.01446
1.02026
1.01194
1.00943
1.00607
1.01331
1.01284
1.0127
1.02009
1.01581
1.02533
1.02924
1.03108
1.03973
1.04551
1.04824
1.05043
1.04995
1.0498
1.04827
1.04448
1.04813
1.04594
1.03966
1.03993
1.04399
1.04204
1.04494
1.04413
1.04696
1.04707
1.04987
1.05159
1.05308
1.05453
1.05705
1.05851
1.06102
1.06293
1.06469
1.06765
1.0686
1.07185
1.07307
1.0756
1.07858
1.07996
1.08035
1.08336
1.08475
1.08664
1.08786
1.08918
1.09038
1.09161
1.09313
1.09523
1.09609
1.09687
1.09805
1.0992
1.09993
1.09963
1.10077
1.1012
1.10078
1.10112
1.10072
1.10121
1.1004
1.10053
1.09912
1.09881
1.0976
1.09694
1.09567
1.09452
1.09327
1.09166
1.09029
1.08852
1.08664
1.0847
1.08245
1.08015
1.07767
1.07526
1.07268
1.06957
1.06636
1.0629
1.05925
1.05537
1.05107
1.04678
1.04224
1.03754
1.03238
1.02698
1.02137
1.01541
1.00675
0.998262
0.993977
0.98964
0.982356
0.974858
0.966879
0.959091
0.951261
0.943668
0.934798
0.926766
0.918273
0.910352
0.901608
0.894596
0.887882
0.88278
0.878536
0.877512
0.875422
0.879
0.884156
0.883371
0.895507
0.895036
0.905352
0.910904
0.920656
0.923898
0.93331
0.937622
0.944698
0.953106
0.957992
0.964903
0.971475
0.977329
0.982431
0.989375
0.99441
0.999978
1.00551
1.01121
1.01765
1.02381
1.0303
1.03674
1.04286
1.04917
1.0567
1.06383
1.07057
1.07881
1.086
1.09428
1.10277
1.11076
1.11923
1.12812
1.13789
1.14779
1.15837
1.16925
1.18147
1.1929
1.20613
1.22003
1.23368
1.24873
1.26364
1.28038
1.29677
1.31396
1.32984
1.34397
1.35572
1.35698
1.36412
1.34023
1.31458
1.26055
1.20843
1.13004
1.06322
0.990726
0.940653
0.875013
0.824048
0.766449
0.731313
0.695829
0.65612
0.648172
0.61806
0.614238
0.596944
0.593336
0.587585
0.586561
0.584998
0.583862
0.581604
0.581308
0.580894
0.582191
0.582558
0.583527
0.583302
0.583278
0.582955
0.583422
0.583058
0.583378
0.58274
0.582648
0.582032
0.57996
0.574303
0.574103
0.574246
0.575124
0.575999
0.577196
0.578285
0.579936
0.581087
0.581051
0.576301
0.574588
0.569507
0.564995
0.565326
0.563821
0.563067
0.562833
0.561996
0.561405
0.55925
0.558613
0.557054
0.555631
0.553325
0.554018
0.545197
0.547038
0.547298
0.547163
0.559789
0.634553
0.765082
0.820286
0.825461
0.827496
0.834261
0.840565
0.846482
0.851173
0.85676
0.861989
0.867928
0.873687
0.880042
0.885872
0.892498
0.900474
0.908453
0.913374
0.918551
0.925392
0.933116
0.938703
0.943744
0.949229
0.955347
0.961022
0.966424
0.971609
0.976704
0.981579
0.986342
0.990826
0.995213
0.999147
1.00302
1.00649
1.00975
1.01277
1.0154
1.01793
1.02002
1.02204
1.02355
1.02489
1.02579
1.02647
1.0269
1.02701
1.02694
1.02713
1.0273
1.02722
1.02732
1.02743
1.02719
1.02757
1.02685
1.02761
1.02711
1.02748
1.02666
1.02747
1.02667
1.02657
1.02629
1.02715
1.02595
1.02716
1.02634
1.02683
1.02644
1.02683
1.02717
1.02889
1.02491
1.02595
1.02644
1.02699
1.02722
1.02741
1.02527
1.02703
1.02707
1.02807
1.02835
1.03011
1.03189
1.03543
1.0249
1.03173
1.05129
1.04617
1.04378
1.04673
1.05111
1.05015
1.05143
1.04962
1.0447
1.03952
1.03092
1.02879
1.02499
1.01555
1.01979
1.01301
1.0122
1.01308
1.006
1.00957
1.01175
1.02032
1.01426
1.01746
1.01163
1.01144
1.01725
1.01436
1.01989
1.01178
1.00887
1.00578
1.0131
1.01212
1.0128
1.01978
1.0157
1.02542
1.02886
1.03109
1.03865
1.04529
1.048
1.05112
1.04989
1.05011
1.04825
1.04493
1.04876
1.04565
1.04097
1.04248
1.04559
1.04134
1.04423
1.04567
1.04678
1.04811
1.04952
1.05145
1.05277
1.05486
1.05696
1.05893
1.06034
1.06274
1.06435
1.06641
1.06828
1.07224
1.07213
1.07497
1.07828
1.0793
1.08022
1.08284
1.08422
1.08592
1.08773
1.08867
1.0893
1.09155
1.09255
1.09478
1.09556
1.09634
1.09782
1.0986
1.0993
1.09905
1.10021
1.10072
1.10036
1.10061
1.10025
1.10076
1.1
1.10003
1.09874
1.0984
1.09727
1.09659
1.09533
1.09424
1.09294
1.09139
1.08999
1.08823
1.08636
1.08444
1.08217
1.07991
1.07742
1.075
1.07242
1.06937
1.06618
1.06274
1.05911
1.05521
1.05092
1.04666
1.0421
1.03742
1.03232
1.02696
1.02138
1.0154
1.00681
0.998483
0.994209
0.989596
0.98242
0.975069
0.96716
0.95942
0.951618
0.94408
0.935309
0.927289
0.918856
0.910909
0.902314
0.89529
0.888692
0.883521
0.879476
0.877931
0.875537
0.881558
0.884923
0.883868
0.895411
0.895491
0.905392
0.911375
0.92024
0.924453
0.932588
0.937513
0.944487
0.952568
0.957968
0.965255
0.971049
0.977356
0.982029
0.989066
0.994452
1.00021
1.00619
1.01227
1.01833
1.02468
1.03075
1.03765
1.04375
1.05063
1.05817
1.0643
1.07204
1.07929
1.08776
1.0952
1.10402
1.11235
1.12024
1.12993
1.13909
1.1496
1.15932
1.1716
1.18274
1.19528
1.20891
1.22169
1.23575
1.25009
1.26567
1.28049
1.29674
1.31123
1.32658
1.3387
1.34902
1.35085
1.35786
1.33595
1.31648
1.26934
1.22047
1.15354
1.08754
1.01879
0.964466
0.903557
0.85032
0.793912
0.752849
0.71657
0.674337
0.65859
0.630119
0.621103
0.60336
0.599228
0.590448
0.587827
0.586194
0.58678
0.585227
0.583891
0.583774
0.584401
0.584781
0.585572
0.585432
0.585959
0.584561
0.584145
0.58439