/*--------------------------------*- C++ -*----------------------------------*\
| =========                 |                                                 |
| \\      /  F ield         | OpenFOAM: The Open Source CFD Toolbox           |
|  \\    /   O peration     | Version:  v2006                                 |
|   \\  /    A nd           | Website:  www.openfoam.com                      |
|    \\/     M anipulation  |                                                 |
\*---------------------------------------------------------------------------*/
FoamFile
{
    version     2.0;
    format      ascii;
    class       volScalarField;
    location    "100";
    object      rho;
}
// * * * * * * * * * * * * * * * * * * * * * * * * * * * * * * * * * * * * * //

dimensions      [1 -3 0 0 0 0 0];


internalField   nonuniform List<scalar> 
93840
(
1.00816
1.0125
1.00993
1.01391
1.00874
1.00877
1.00708
1.00945
1.00463
1.00579
1.0125
1.01491
1.02181
1.02121
1.02454
1.02672
1.03353
1.03228
1.03647
1.03369
1.03292
1.02695
1.01403
1.00787
1.00882
0.988635
0.999134
1.01073
0.99707
1.00362
0.994862
1.006
0.990894
0.999526
1.00146
1.00595
1.00682
1.01133
1.0115
1.01496
1.01697
1.01824
1.01968
1.02193
1.02374
1.02495
1.02723
1.02774
1.02937
1.03038
1.03199
1.03308
1.03511
1.03589
1.03677
1.03723
1.03773
1.03792
1.03988
1.0416
1.04083
1.04239
1.04269
1.04304
1.0427
1.04318
1.04335
1.04262
1.04259
1.04211
1.04214
1.04156
1.04106
1.03997
1.0393
1.03828
1.03732
1.03619
1.03492
1.03368
1.03218
1.03086
1.02923
1.02741
1.02554
1.02354
1.0214
1.01926
1.01708
1.01482
1.01203
1.00913
1.00615
1.00298
0.999614
0.995934
0.992207
0.988383
0.984357
0.979985
0.975432
0.970813
0.966071
0.958699
0.951215
0.94809
0.94517
0.939157
0.932733
0.926298
0.920041
0.913797
0.907949
0.900944
0.894661
0.888263
0.882598
0.875796
0.870893
0.866103
0.863548
0.860249
0.860827
0.859287
0.863567
0.868789
0.86943
0.87966
0.880326
0.889116
0.89479
0.903163
0.907078
0.914867
0.918781
0.92541
0.932549
0.937367
0.943777
0.949129
0.954428
0.959062
0.964953
0.970129
0.974728
0.97958
0.984792
0.989962
0.99511
1.0013
1.00619
1.01191
1.01689
1.02336
1.02876
1.0343
1.04067
1.04606
1.05371
1.05937
1.06597
1.0718
1.07878
1.0852
1.09317
1.10086
1.10902
1.11811
1.12628
1.13488
1.1452
1.15653
1.16707
1.17763
1.18963
1.2036
1.21808
1.23531
1.25088
1.26668
1.27539
1.28664
1.26211
1.22365
1.1332
1.04814
0.941561
0.874233
0.836586
0.829715
0.769571
0.729559
0.683254
0.665295
0.656546
0.632109
0.634211
0.621546
0.618979
0.611501
0.614123
0.614014
0.613144
0.611916
0.611397
0.611048
0.611168
0.610692
0.610478
0.609831
0.609315
0.609065
0.608275
0.607397
0.607019
0.60646
0.605744
0.604862
0.603529
0.601008
0.597735
0.593574
0.593137
0.592937
0.592662
0.592852
0.592591
0.592855
0.593092
0.593437
0.591315
0.586982
0.584208
0.580475
0.576048
0.576185
0.574159
0.573373
0.571784
0.570699
0.56889
0.567782
0.566087
0.564056
0.562726
0.560431
0.560014
0.552778
0.554522
0.553412
0.554075
0.569812
0.621196
0.701905
0.741519
0.755329
0.76393
0.772478
0.77975
0.786785
0.79252
0.79859
0.804076
0.80991
0.815462
0.82136
0.826611
0.832454
0.839619
0.846802
0.851083
0.855441
0.861583
0.868492
0.873394
0.877568
0.882304
0.887617
0.892556
0.897101
0.90157
0.905837
0.910072
0.914013
0.917925
0.921569
0.925023
0.92823
0.931405
0.934107
0.937141
0.939439
0.94237
0.944287
0.947378
0.949015
0.952076
0.952684
0.956459
0.954083
0.974617
0.986032
0.984017
0.986386
0.988383
0.985823
0.984181
0.980958
0.97878
0.975475
0.975278
0.973124
0.973927
0.973352
0.974557
0.974372
0.974674
0.97334
0.973333
0.972732
0.973722
0.972594
0.971016
0.966431
0.965072
0.961466
0.959952
0.95645
0.955233
0.952739
0.95271
0.952445
0.95296
0.947454
0.949706
0.954286
0.949755
0.958866
0.965798
0.976988
1.00313
1.00179
0.992814
1.01149
1.00865
1.01175
1.02607
1.03491
1.03296
1.03774
1.03223
1.03284
1.02714
1.02524
1.02109
1.02218
1.01441
1.01211
1.00596
1.0042
1.00948
1.00716
1.00859
1.00825
1.01355
1.00994
1.0126
1.0082
1.00834
1.01257
1.00983
1.01347
1.00831
1.0086
1.00734
1.00951
1.00434
1.006
1.01206
1.01447
1.02229
1.02092
1.02541
1.02677
1.03336
1.03157
1.03798
1.03342
1.03595
1.02896
1.01824
1.00983
1.01092
0.993871
0.994989
1.00121
0.991014
0.996396
0.994316
0.992001
0.99797
0.997411
1.00348
1.00426
1.00678
1.00992
1.01049
1.01351
1.01577
1.01697
1.01832
1.02078
1.02191
1.02346
1.02537
1.0262
1.02765
1.02857
1.03017
1.03117
1.03313
1.03344
1.03466
1.03548
1.0357
1.03592
1.03758
1.03933
1.03868
1.03998
1.04042
1.0409
1.04031
1.04105
1.04113
1.04052
1.04043
1.04009
1.04016
1.0396
1.03913
1.03814
1.03759
1.03657
1.03568
1.03467
1.03348
1.03234
1.03091
1.02969
1.02817
1.02646
1.02476
1.02285
1.02087
1.01887
1.01681
1.01474
1.01215
1.00947
1.00671
1.00374
1.00064
0.997206
0.993756
0.990217
0.98648
0.982475
0.978269
0.974003
0.969667
0.962947
0.956059
0.953074
0.950369
0.944969
0.939155
0.933306
0.927619
0.921963
0.916709
0.910409
0.904799
0.899093
0.894018
0.887907
0.883523
0.879283
0.87702
0.874092
0.874682
0.873573
0.87867
0.882877
0.883318
0.893211
0.894143
0.90252
0.908037
0.916014
0.919882
0.927356
0.931282
0.937489
0.944555
0.949188
0.955392
0.960803
0.965775
0.970375
0.976079
0.98088
0.985612
0.990121
0.995354
1.00009
1.00545
1.01089
1.01596
1.02122
1.02575
1.03206
1.03689
1.04223
1.04815
1.05327
1.06007
1.06513
1.07116
1.07607
1.0827
1.08803
1.09549
1.10235
1.1096
1.11771
1.12552
1.13351
1.14288
1.153
1.16343
1.17478
1.18628
1.19924
1.21164
1.22584
1.23926
1.25429
1.25741
1.26679
1.24492
1.22204
1.16207
1.09868
1.01869
0.951358
0.89924
0.879416
0.818817
0.778927
0.734951
0.718898
0.701582
0.674467
0.675228
0.66179
0.659833
0.650607
0.652172
0.651192
0.649985
0.648868
0.64749
0.646405
0.645394
0.644701
0.643858
0.642607
0.641303
0.640453
0.638822
0.637663
0.636584
0.635715
0.634168
0.633032
0.631213
0.628126
0.624526
0.620475
0.619104
0.618652
0.617736
0.617869
0.617052
0.617074
0.616692
0.616742
0.614247
0.609801
0.606751
0.602895
0.597917
0.597777
0.595641
0.594897
0.592475
0.591409
0.58949
0.588356
0.585945
0.584064
0.582357
0.579893
0.579358
0.571893
0.573821
0.571867
0.573978
0.586806
0.634416
0.713642
0.747883
0.759985
0.768089
0.776269
0.783292
0.790098
0.79565
0.801509
0.806795
0.812387
0.817687
0.823319
0.82836
0.833972
0.840686
0.847383
0.851477
0.855733
0.86152
0.867933
0.872536
0.876551
0.881059
0.886045
0.890693
0.894983
0.899203
0.903223
0.907214
0.910926
0.914611
0.918046
0.921309
0.924333
0.927338
0.929861
0.932715
0.934784
0.937479
0.938995
0.941676
0.942574
0.945431
0.945447
0.948935
0.947342
0.952525
0.958364
0.961247
0.963621
0.970814
0.971218
0.968368
0.965227
0.963083
0.959656
0.95806
0.954951
0.953288
0.95086
0.951116
0.950517
0.951928
0.951927
0.952944
0.953437
0.954903
0.954364
0.954463
0.9532
0.953099
0.951335
0.951384
0.949027
0.949923
0.946813
0.94861
0.948563
0.950215
0.947323
0.950763
0.943127
0.95109
0.950538
0.95027
0.956785
0.978179
0.969875
0.978181
1.01005
1.00712
1.00799
1.0226
1.03235
1.03358
1.03667
1.03217
1.03372
1.02675
1.02442
1.02085
1.0216
1.01503
1.01231
1.00582
1.00441
1.00937
1.00696
1.00881
1.00866
1.01394
1.00983
1.01249
1.0082
1.00822
1.01257
1.00994
1.01387
1.00866
1.00892
1.00727
1.00954
1.00474
1.00577
1.01249
1.01459
1.02213
1.02087
1.02463
1.02719
1.03355
1.03194
1.03648
1.0338
1.03427
1.03042
1.0225
1.01412
1.01219
0.997232
0.995559
1.00546
0.995725
0.998318
0.99794
1.00342
0.998144
1.00348
1.0031
1.00666
1.00743
1.01043
1.01153
1.01342
1.01574
1.01724
1.01843
1.02056
1.02205
1.02356
1.02515
1.02617
1.02747
1.02843
1.02996
1.03103
1.03259
1.03344
1.03422
1.03513
1.03546
1.03575
1.03749
1.03904
1.03843
1.03976
1.0402
1.04065
1.04028
1.04092
1.041
1.04048
1.04054
1.04004
1.04029
1.03966
1.0394
1.03834
1.03791
1.03689
1.03614
1.03518
1.03402
1.03302
1.03164
1.03052
1.0291
1.02747
1.02592
1.02409
1.02227
1.02039
1.01846
1.01657
1.0141
1.01163
1.00904
1.00624
1.00338
1.00013
0.996936
0.993643
0.990152
0.986456
0.982532
0.978594
0.974577
0.968228
0.961777
0.959088
0.956693
0.951686
0.946282
0.940867
0.93559
0.930383
0.925533
0.919671
0.914449
0.909121
0.904388
0.89855
0.8944
0.890343
0.888103
0.885162
0.885893
0.884867
0.888701
0.893565
0.893804
0.904108
0.904682
0.912493
0.918369
0.926032
0.929629
0.937065
0.940765
0.946847
0.95364
0.958074
0.963933
0.969184
0.973939
0.978307
0.983665
0.988514
0.992744
0.997193
1.00196
1.00667
1.01125
1.01683
1.02119
1.02624
1.03075
1.03628
1.04118
1.04593
1.05149
1.05629
1.06275
1.06772
1.07372
1.07893
1.08486
1.09103
1.09774
1.10469
1.11265
1.12035
1.12804
1.13682
1.14667
1.15717
1.16756
1.17791
1.18991
1.20341
1.21751
1.23311
1.24732
1.2633
1.26794
1.2801
1.25251
1.22617
1.1688
1.10523
1.02004
0.959471
0.904314
0.882957
0.829019
0.790472
0.744379
0.723457
0.70627
0.682469
0.681255
0.669435
0.666803
0.659034
0.660436
0.661129
0.6611
0.66155
0.661402
0.662065
0.662133
0.662661
0.662504
0.662601
0.661722
0.661543
0.660189
0.659693
0.65861
0.657982
0.656518
0.655173
0.65291
0.651224
0.646601
0.642136
0.640768
0.640515
0.639323
0.639574
0.638377
0.63856
0.637619
0.637799
0.634786
0.630544
0.626432
0.622864
0.617451
0.617626
0.614486
0.613723
0.611447
0.610383
0.607695
0.606474
0.604011
0.601937
0.600097
0.597634
0.596636
0.588849
0.590725
0.588186
0.591256
0.601201
0.647291
0.725081
0.760182
0.770228
0.776968
0.784197
0.790555
0.79677
0.801883
0.807337
0.812274
0.817526
0.822499
0.82782
0.832585
0.837902
0.844264
0.850629
0.854504
0.858533
0.863997
0.870091
0.874457
0.878274
0.88255
0.887288
0.891706
0.895786
0.899791
0.903609
0.907391
0.910917
0.914408
0.91767
0.920765
0.923636
0.926476
0.928858
0.931538
0.933441
0.935923
0.937246
0.939664
0.940311
0.942729
0.942819
0.945305
0.945139
0.946723
0.949243
0.952016
0.95359
0.957481
0.962793
0.964901
0.963974
0.962496
0.960148
0.958403
0.955869
0.954263
0.951588
0.950218
0.948059
0.948944
0.948552
0.949458
0.949263
0.950403
0.950066
0.950553
0.950318
0.950677
0.949581
0.949941
0.948523
0.949388
0.94739
0.948157
0.948562
0.949857
0.949994
0.949782
0.945756
0.948271
0.953907
0.950603
0.955901
0.972547
0.958166
0.970277
1.0086
1.0079
1.00571
1.01939
1.03303
1.03279
1.03779
1.03224
1.03311
1.02721
1.02522
1.02162
1.02204
1.01459
1.01232
1.00607
1.00413
1.00935
1.00734
1.00858
1.00835
1.01366
1.00988
1.01267
1.00824
1.00829
1.01247
1.00992
1.01345
1.0084
1.00836
1.00687
1.00937
1.00431
1.00572
1.01203
1.01445
1.02236
1.02104
1.02551
1.02669
1.03342
1.03137
1.0381
1.03337
1.03526
1.03205
1.02307
1.01711
1.01323
1.00043
1.00238
1.00568
0.996341
1.00049
0.996866
1.00034
1.00003
1.00336
1.0037
1.00738
1.00714
1.01146
1.01135
1.01418
1.01642
1.01711
1.0192
1.02072
1.02255
1.02305
1.02585
1.02625
1.02809
1.02862
1.03047
1.03114
1.03312
1.03311
1.03501
1.03547
1.0359
1.03605
1.03801
1.03925
1.0389
1.03998
1.04058
1.04113
1.04062
1.04145
1.04151
1.04096
1.04111
1.04075
1.04098
1.04038
1.04014
1.03915
1.03885
1.03779
1.03708
1.03624
1.03513
1.03421
1.03287
1.03183
1.03048
1.02894
1.02752
1.02575
1.02408
1.02228
1.02045
1.0187
1.01635
1.01406
1.0116
1.00895
1.00628
1.00317
1.00018
0.997068
0.993785
0.990352
0.986647
0.982957
0.979162
0.973169
0.967092
0.964561
0.962303
0.957638
0.952566
0.947466
0.942464
0.937542
0.932945
0.927332
0.922368
0.917266
0.912569
0.906903
0.90275
0.898748
0.89625
0.893405
0.89381
0.892819
0.897475
0.901427
0.901111
0.911049
0.911547
0.919567
0.924842
0.932224
0.935954
0.94263
0.946692
0.952184
0.959073
0.963351
0.969128
0.974191
0.978724
0.982802
0.988261
0.992324
0.996824
1.00069
1.00544
1.00938
1.01434
1.01867
1.02336
1.02786
1.03178
1.03756
1.04186
1.0469
1.05216
1.05712
1.06328
1.06804
1.07409
1.07882
1.0854
1.09109
1.09816
1.10513
1.11314
1.12115
1.12928
1.13761
1.14705
1.1576
1.16803
1.17928
1.19087
1.20376
1.21661
1.23098
1.2425
1.25331
1.25767
1.26531
1.25089
1.23125
1.18315
1.13004
1.05756
0.997233
0.939302
0.912458
0.855091
0.814598
0.768409
0.74823
0.725366
0.697219
0.693443
0.678538
0.676232
0.668265
0.668545
0.669012
0.668422
0.66882
0.669219
0.669203
0.670136
0.670912
0.671696
0.672484
0.672402
0.673438
0.673015
0.673048
0.672669
0.672968
0.671729
0.671342
0.669192
0.667298
0.663679
0.659238
0.657434
0.657159
0.655849
0.656051
0.654842
0.655115
0.654121
0.654196
0.651185
0.646625
0.643121
0.638781
0.632948
0.632942
0.630008
0.629112
0.626076
0.625175
0.622734
0.621319
0.617928
0.616612
0.61363
0.611412
0.610221
0.602803
0.603588
0.602528
0.602313
0.614017
0.660134
0.737827
0.773109
0.781004
0.786551
0.792984
0.798562
0.804099
0.808652
0.813641
0.818214
0.823108
0.827752
0.832749
0.83726
0.842312
0.848295
0.854309
0.858028
0.861934
0.86713
0.872873
0.877023
0.880706
0.884795
0.889299
0.893507
0.897414
0.901249
0.904901
0.90851
0.911875
0.915189
0.918299
0.921232
0.92397
0.926658
0.928909
0.931433
0.93323
0.935533
0.936742
0.938894
0.939481
0.941405
0.941627
0.943186
0.943724
0.944339
0.945482
0.947264
0.948568
0.950189
0.953208
0.956594
0.959369
0.960977
0.959982
0.959252
0.957145
0.955896
0.953686
0.952517
0.949964
0.948991
0.947746
0.948726
0.947502
0.948968
0.948112
0.949053
0.949231
0.949802
0.948641
0.949489
0.94853
0.949306
0.947108
0.948304
0.94692
0.948696
0.948238
0.950431
0.945935
0.950207
0.949976
0.949889
0.951731
0.962222
0.943564
0.955932
0.999798
1.00447
1.00372
1.0168
1.03019
1.03298
1.0372
1.03252
1.03373
1.02661
1.02436
1.02056
1.02171
1.01521
1.01228
1.00566
1.00433
1.00941
1.00683
1.00891
1.00854
1.014
1.00978
1.01247
1.00819
1.00832
1.01259
1.01
1.01386
1.00874
1.00886
1.00761
1.00949
1.00478
1.00571
1.01253
1.01447
1.02207
1.02101
1.02457
1.027
1.03355
1.03163
1.03659
1.03327
1.03532
1.03227
1.02744
1.02205
1.0134
1.00451
1.00141
1.00666
1.00255
1.00361
1.00205
1.00578
1.00318
1.00721
1.00644
1.00938
1.01025
1.01227
1.01398
1.01536
1.01734
1.01882
1.02039
1.02151
1.02377
1.02428
1.02687
1.0275
1.02916
1.02973
1.03125
1.03229
1.03349
1.03451
1.03573
1.03633
1.03674
1.03734
1.03882
1.0402
1.03995
1.04097
1.04164
1.04205
1.04166
1.04254
1.04255
1.04218
1.04223
1.04186
1.04226
1.04155
1.04146
1.04042
1.04022
1.03916
1.03856
1.03773
1.03667
1.03585
1.03456
1.0336
1.03232
1.03087
1.02956
1.02786
1.02632
1.0246
1.02289
1.02126
1.01899
1.01687
1.01452
1.01203
1.00953
1.00656
1.00378
1.00084
0.997745
0.994519
0.991002
0.987539
0.983922
0.978191
0.972445
0.97008
0.968
0.963503
0.958655
0.953768
0.948944
0.944223
0.939726
0.934263
0.929371
0.924286
0.919612
0.913872
0.90972
0.905537
0.902893
0.899747
0.90016
0.899086
0.903604
0.907054
0.906845
0.91699
0.9175
0.924668
0.930492
0.937569
0.940943
0.947951
0.951533
0.956989
0.963565
0.967455
0.972693
0.977819
0.981971
0.985932
0.991025
0.994973
0.99887
1.00255
1.00701
1.01101
1.01584
1.02027
1.02492
1.02927
1.03354
1.03869
1.04339
1.04823
1.05356
1.05872
1.06463
1.06964
1.07568
1.08056
1.08706
1.09315
1.10016
1.10707
1.11534
1.12236
1.13068
1.13948
1.1492
1.15906
1.16989
1.18037
1.19201
1.20469
1.21829
1.23138
1.24334
1.25422
1.25702
1.26445
1.24431
1.2249
1.17676
1.12658
1.05361
1.00068
0.941619
0.912397
0.859179
0.822567
0.774596
0.75126
0.727602
0.703968
0.698587
0.682535
0.680831
0.670478
0.669908
0.670882
0.669856
0.669846
0.669751
0.670282
0.670918
0.671437
0.672115
0.673195
0.67358
0.674333
0.674326
0.675178
0.675273
0.676166
0.676057
0.676548
0.675392
0.674778
0.671502
0.668785
0.667292
0.667951
0.667067
0.668231
0.667189
0.66828
0.667336
0.667904
0.664948
0.660747
0.656147
0.652791
0.646555
0.646449
0.643507
0.642854
0.639618
0.638404
0.635675
0.634723
0.631173
0.628992
0.626678
0.624726
0.622502
0.615064
0.615301
0.614933
0.613908
0.624865
0.671234
0.751259
0.787102
0.793758
0.797988
0.803349
0.80817
0.812905
0.81682
0.821224
0.825296
0.829762
0.833999
0.838624
0.842817
0.847537
0.853178
0.858861
0.862362
0.866035
0.870907
0.876366
0.880312
0.883819
0.887698
0.891972
0.895968
0.89968
0.903313
0.906779
0.910191
0.913386
0.91652
0.919466
0.922242
0.924836
0.927365
0.929501
0.931849
0.933529
0.93563
0.93679
0.938679
0.939329
0.940772
0.941179
0.942066
0.9426
0.942959
0.943406
0.944356
0.94531
0.946316
0.947731
0.949484
0.951893
0.95482
0.956278
0.958022
0.957265
0.956818
0.954897
0.95429
0.952362
0.951683
0.949842
0.949302
0.947996
0.948314
0.947582
0.948401
0.94848
0.949394
0.948562
0.949107
0.948579
0.94905
0.947464
0.948092
0.945704
0.947628
0.949143
0.949796
0.948323
0.949703
0.950124
0.949441
0.954915
0.96161
0.947943
0.957414
0.993722
0.998225
1.00105
1.01338
1.03056
1.032
1.0374
1.03248
1.03336
1.0274
1.02479
1.02174
1.02222
1.01454
1.01218
1.00619
1.00412
1.00947
1.00736
1.00871
1.00838
1.01371
1.00981
1.01253
1.00814
1.00816
1.01238
1.00998
1.01351
1.00849
1.00843
1.00696
1.00933
1.00433
1.00578
1.01202
1.01441
1.02216
1.02108
1.0254
1.02688
1.03332
1.03135
1.03777
1.03313
1.03535
1.03278
1.0276
1.02576
1.01643
1.0079
1.00717
1.00819
1.00382
1.00465
1.00397
1.00474
1.00694
1.00701
1.00956
1.00978
1.01226
1.01315
1.01569
1.01589
1.01945
1.01938
1.02155
1.02302
1.02474
1.02551
1.02774
1.02907
1.03002
1.03107
1.03221
1.03388
1.03463
1.03561
1.03685
1.03764
1.03787
1.03858
1.04024
1.04124
1.04119
1.04221
1.04272
1.04331
1.0429
1.04388
1.04387
1.0435
1.04374
1.04327
1.04375
1.04301
1.04306
1.04203
1.04187
1.04086
1.04031
1.03957
1.03854
1.03781
1.03656
1.03568
1.03447
1.03312
1.03193
1.03029
1.0289
1.02723
1.02564
1.02412
1.02198
1.02002
1.01777
1.01543
1.01306
1.01022
1.00764
1.00482
1.00192
0.998913
0.995563
0.992306
0.988816
0.983353
0.977878
0.975605
0.973516
0.969212
0.964546
0.959798
0.955055
0.950413
0.945939
0.940468
0.935595
0.930467
0.92556
0.919807
0.91544
0.91116
0.908107
0.905191
0.905371
0.904144
0.907209
0.911633
0.911103
0.920474
0.920466
0.928143
0.932918
0.939765
0.943023
0.949057
0.952801
0.957865
0.96404
0.968032
0.973211
0.97764
0.981964
0.985401
0.990652
0.994502
0.998614
1.00254
1.00673
1.01079
1.01545
1.01969
1.02442
1.02895
1.03312
1.03884
1.04303
1.04832
1.05328
1.05844
1.06455
1.06964
1.07584
1.08086
1.08736
1.09366
1.10036
1.10731
1.11553
1.12359
1.13166
1.14039
1.14995
1.16009
1.1701
1.18115
1.19292
1.20494
1.21751
1.23018
1.24045
1.25035
1.25355
1.26156
1.24385
1.22755
1.18867
1.14576
1.08497
1.0284
0.973776
0.936048
0.887416
0.843713
0.800197
0.77368
0.751412
0.717491
0.71463
0.694862
0.689305
0.681025
0.677483
0.674411
0.676317
0.677013
0.676047
0.675878
0.676031
0.67646
0.677244
0.678409
0.678582
0.678866
0.679346
0.678587
0.679927
0.680017
0.680438
0.680562
0.679998
0.679444
0.677073
0.672643
0.672858
0.673509
0.674036
0.674871
0.675123
0.676894
0.67677
0.677914
0.675463
0.671761
0.668454
0.664123
0.658319
0.658687
0.65519
0.654361
0.651587
0.650616
0.647593
0.646365
0.642873
0.641416
0.637768
0.636012
0.634175
0.62705
0.626558
0.626589
0.624805
0.634725
0.682284
0.765528
0.801926
0.80705
0.810275
0.815014
0.819026
0.823008
0.826213
0.82998
0.833556
0.837535
0.841346
0.845529
0.849368
0.853723
0.85889
0.864182
0.867494
0.870987
0.875567
0.880643
0.884343
0.887666
0.891312
0.895321
0.899074
0.902587
0.90603
0.90931
0.912532
0.915543
0.918473
0.921238
0.923824
0.92625
0.9286
0.930573
0.932758
0.934345
0.93627
0.937376
0.938999
0.939672
0.940803
0.941205
0.94178
0.942173
0.942331
0.942493
0.94323
0.943472
0.944414
0.944697
0.945964
0.946887
0.948565
0.950297
0.952708
0.95386
0.955654
0.954693
0.954684
0.953144
0.95313
0.952005
0.951499
0.950591
0.95033
0.949011
0.949296
0.947212
0.948124
0.946788
0.948605
0.948255
0.949003
0.947891
0.9495
0.945205
0.947255
0.947035
0.948722
0.947401
0.950592
0.948995
0.951221
0.949379
0.958813
0.944168
0.955945
0.985697
0.984251
0.996274
1.01048
1.02732
1.03216
1.03681
1.03293
1.03343
1.02664
1.02433
1.02095
1.02152
1.01515
1.0123
1.00564
1.00428
1.00934
1.00681
1.009
1.00838
1.01402
1.00976
1.01255
1.0082
1.00836
1.01253
1.01002
1.01386
1.00879
1.00895
1.00761
1.00948
1.00486
1.00575
1.01254
1.01436
1.02218
1.02095
1.0247
1.02692
1.0334
1.0315
1.03687
1.03308
1.03515
1.03323
1.02986
1.02942
1.02054
1.00844
1.00971
1.01075
1.00854
1.00892
1.00909
1.00937
1.01036
1.0107
1.01271
1.01288
1.01566
1.01569
1.01819
1.01872
1.02094
1.02196
1.02392
1.02436
1.02672
1.02746
1.0294
1.03118
1.03194
1.03278
1.03412
1.03536
1.0362
1.03739
1.03843
1.03903
1.03951
1.04051
1.04174
1.04292
1.04289
1.04396
1.04442
1.04493
1.04467
1.04559
1.04559
1.04533
1.04548
1.04515
1.04564
1.04487
1.04501
1.04396
1.04388
1.04292
1.04241
1.04173
1.04075
1.04011
1.03891
1.03812
1.03698
1.03573
1.03463
1.03307
1.0318
1.0302
1.02873
1.02729
1.02523
1.02342
1.02125
1.01907
1.01684
1.01412
1.01172
1.00903
1.0063
1.00341
1.0002
0.997089
0.993676
0.988403
0.983156
0.980903
0.978861
0.97453
0.969939
0.965207
0.96045
0.955802
0.951188
0.945673
0.940654
0.935347
0.930284
0.924268
0.919822
0.915154
0.911996
0.908561
0.908673
0.906752
0.910817
0.913812
0.913672
0.92241
0.922685
0.929735
0.934625
0.941427
0.944177
0.950672
0.954168
0.959011
0.965508
0.969025
0.973924
0.978842
0.982932
0.986595
0.991936
0.99548
0.999633
1.00329
1.00768
1.01165
1.01662
1.02064
1.0256
1.02959
1.0341
1.03908
1.04417
1.04884
1.05462
1.05945
1.06551
1.07067
1.07667
1.08161
1.0885
1.09446
1.10187
1.10849
1.11664
1.12385
1.13266
1.1407
1.15104
1.1599
1.17073
1.18086
1.19274
1.20418
1.21668
1.22843
1.23881
1.24812
1.24891
1.2554
1.23617
1.22035
1.18142
1.14111
1.07871
1.026
0.971933
0.935758
0.889648
0.851142
0.804746
0.774937
0.752508
0.723982
0.718514
0.695927
0.695255
0.681001
0.681858
0.678852
0.677296
0.676343
0.676625
0.676561
0.676401
0.676868
0.677611
0.677346
0.678532
0.678548
0.679568
0.67904
0.678853
0.679592
0.679962
0.680243
0.679564
0.678486
0.677146
0.673552
0.67286
0.673449
0.674086
0.675056
0.676354
0.677495
0.67866
0.679996
0.678641
0.675523
0.672407
0.669734
0.664329
0.665286
0.663286
0.662997
0.660004
0.659605
0.657235
0.656581
0.652654
0.651009
0.648386
0.646724
0.644464
0.636855
0.636808
0.636572
0.635105
0.64325
0.692289
0.779474
0.8172
0.821451
0.823618
0.827447
0.830923
0.834176
0.836772
0.839897
0.842878
0.846359
0.849683
0.85341
0.856859
0.860815
0.865587
0.870462
0.873493
0.876703
0.880889
0.885638
0.889096
0.892215
0.895621
0.89936
0.902859
0.906133
0.909326
0.912383
0.915366
0.918175
0.920898
0.92347
0.925868
0.928127
0.930287
0.932141
0.934101
0.935554
0.937244
0.938309
0.939696
0.940384
0.941267
0.941645
0.942048
0.942173
0.942188
0.942111
0.942339
0.942582
0.943005
0.943435
0.943826
0.944338
0.945148
0.945849
0.947555
0.948483
0.950563
0.951427
0.953018
0.952409
0.953057
0.951954
0.952095
0.951623
0.951469
0.951165
0.951364
0.950031
0.949912
0.948189
0.948178
0.947235
0.947426
0.948062
0.948726
0.945736
0.946175
0.946269
0.948518
0.948576
0.949474
0.9488
0.950052
0.951332
0.956323
0.948902
0.962467
0.980351
0.973775
0.989809
1.00629
1.02625
1.03084
1.03736
1.03257
1.03304
1.02759
1.02454
1.02143
1.02214
1.01462
1.01218
1.00618
1.004
1.00945
1.0072
1.00877
1.00846
1.01376
1.00972
1.0126
1.00819
1.00802
1.01259
1.01007
1.01356
1.0086
1.00849
1.00698
1.00929
1.00434
1.0056
1.01212
1.01417
1.02229
1.02102
1.02516
1.02658
1.03316
1.0314
1.03762
1.03304
1.03541
1.03306
1.0302
1.03271
1.0243
1.01229
1.01553
1.01329
1.01096
1.01086
1.01132
1.01195
1.01251
1.01293
1.01469
1.01572
1.01704
1.01853
1.01976
1.02097
1.0225
1.02395
1.02485
1.02702
1.02875
1.02911
1.03148
1.03277
1.03395
1.03415
1.03616
1.03728
1.03813
1.03925
1.03978
1.041
1.04127
1.0425
1.04356
1.04476
1.04477
1.04573
1.04623
1.04679
1.04637
1.04751
1.04756
1.04736
1.04756
1.04699
1.04776
1.0469
1.0472
1.04616
1.04604
1.04519
1.04478
1.0441
1.04321
1.04265
1.04151
1.04078
1.03971
1.03856
1.03756
1.03604
1.03493
1.03336
1.032
1.03064
1.02871
1.02703
1.02493
1.02289
1.02072
1.01812
1.01587
1.01324
1.01067
1.00791
1.0048
1.00181
0.9984
0.993257
0.988103
0.985829
0.983601
0.97928
0.974694
0.969895
0.965026
0.96026
0.955466
0.949698
0.944384
0.938752
0.933285
0.926825
0.92219
0.916956
0.913689
0.909501
0.910002
0.907167
0.912246
0.914134
0.914213
0.922053
0.923088
0.929027
0.934995
0.940078
0.944717
0.949319
0.954181
0.957881
0.965415
0.967686
0.974689
0.977402
0.983348
0.985329
0.991957
0.99435
1
1.00258
1.00825
1.01099
1.017
1.01984
1.02609
1.02897
1.035
1.03874
1.04466
1.04805
1.05502
1.05866
1.06602
1.07017
1.07746
1.08155
1.08904
1.09485
1.10235
1.10869
1.11739
1.1248
1.13365
1.14225
1.15166
1.16108
1.1713
1.18214
1.19351
1.20462
1.21553
1.22711
1.23587
1.2436
1.24489
1.25224
1.23288
1.22278
1.19056
1.15312
1.10219
1.05275
0.99892
0.961399
0.914851
0.873899
0.828283
0.800464
0.774822
0.739031
0.731678
0.709543
0.705452
0.689827
0.6903
0.684109
0.685138
0.683308
0.682228
0.68104
0.681464
0.681091
0.682589
0.682858
0.683769
0.684037
0.683699
0.684157
0.683676
0.684001
0.683833
0.68424
0.683831
0.683367
0.680827
0.676449
0.676795
0.677172
0.67756
0.678492
0.679368
0.680483
0.681419
0.682683
0.681994
0.678671
0.676378
0.672885
0.668563
0.668968
0.667548
0.667471
0.665919
0.66544
0.663561
0.663712
0.660986
0.659048
0.656546
0.65493
0.653702
0.645879
0.645797
0.645784
0.643846
0.651008
0.701397
0.793145
0.832572
0.835291
0.836669
0.840332
0.843258
0.846005
0.848059
0.850628
0.853155
0.856148
0.859052
0.862287
0.865329
0.868863
0.873094
0.877537
0.88033
0.883305
0.887182
0.891505
0.894666
0.897535
0.900655
0.904088
0.907298
0.910328
0.913298
0.916134
0.918897
0.921486
0.923964
0.926318
0.928488
0.930532
0.932476
0.934118
0.9359
0.937226
0.93875
0.939707
0.940887
0.941483
0.942187
0.94247
0.942775
0.942775
0.942686
0.942475
0.942521
0.942409
0.942702
0.942568
0.943164
0.942945
0.943589
0.943601
0.944677
0.944867
0.946198
0.946783
0.948616
0.948974
0.950768
0.950192
0.951417
0.95045
0.951397
0.950659
0.950983
0.95093
0.951525
0.95082
0.951507
0.948383
0.949232
0.947719
0.948604
0.946565
0.948383
0.945981
0.9493
0.948369
0.950713
0.948508
0.952199
0.948916
0.956352
0.946749
0.961245
0.972254
0.964806
0.983276
1.00167
1.022
1.0309
1.0369
1.03321
1.03379
1.02612
1.02452
1.02063
1.02158
1.01517
1.0123
1.00572
1.00418
1.00938
1.00682
1.00908
1.00827
1.01407
1.00985
1.01249
1.00819
1.00827
1.01267
1.01014
1.0139
1.00881
1.00891
1.00746
1.00945
1.00489
1.0057
1.01246
1.01447
1.02227
1.02112
1.02462
1.02744
1.03323
1.03157
1.03674
1.03292
1.03539
1.03325
1.03074
1.03293
1.02889
1.01805
1.01667
1.01773
1.01495
1.01622
1.01506
1.01623
1.01627
1.01742
1.01886
1.01926
1.02038
1.0217
1.02283
1.02408
1.02554
1.02651
1.02866
1.02903
1.0313
1.03175
1.03356
1.03537
1.03624
1.03668
1.03843
1.0394
1.04049
1.04138
1.04194
1.04305
1.04344
1.04482
1.04595
1.04683
1.047
1.04788
1.04836
1.04905
1.04886
1.04956
1.04988
1.04959
1.04997
1.04936
1.05011
1.04927
1.04968
1.04863
1.04856
1.04775
1.04743
1.04679
1.04593
1.04549
1.04435
1.04374
1.04273
1.04168
1.04075
1.03931
1.0383
1.03677
1.03552
1.0342
1.03234
1.03075
1.02869
1.02678
1.02468
1.02218
1.02004
1.01746
1.015
1.01223
1.00916
1.00618
1.0027
0.997584
0.992478
0.99004
0.987684
0.983131
0.978414
0.97335
0.968226
0.963058
0.957918
0.951728
0.94623
0.940223
0.934519
0.927987
0.92304
0.917937
0.914371
0.910584
0.910595
0.908099
0.912272
0.914944
0.915128
0.923249
0.923935
0.930475
0.935686
0.941531
0.945013
0.950951
0.955072
0.959152
0.966633
0.968709
0.975201
0.978629
0.984163
0.98649
0.992901
0.995155
1.00058
1.00317
1.00866
1.01163
1.01756
1.02052
1.0265
1.02964
1.03513
1.0394
1.04558
1.04877
1.0558
1.05925
1.06662
1.07101
1.07788
1.08256
1.08962
1.09558
1.1029
1.1095
1.11739
1.12546
1.13348
1.14225
1.1516
1.16081
1.17092
1.18079
1.19188
1.20294
1.21398
1.22444
1.23347
1.24101
1.24055
1.2471
1.22896
1.21553
1.18027
1.1477
1.09642
1.04872
0.997623
0.962457
0.913301
0.875719
0.82987
0.803741
0.775395
0.744069
0.736536
0.712975
0.708564
0.695585
0.691343
0.687297
0.685479
0.68528
0.683137
0.682056
0.681322
0.681632
0.681922
0.683122
0.683189
0.683812
0.683086
0.683554
0.683311
0.683731
0.683571
0.683601
0.682952
0.68311
0.680897
0.676612
0.675931
0.676553
0.676826
0.678042
0.678779
0.680077
0.680982
0.68245
0.681955
0.67849
0.676499
0.672776
0.668505
0.669088
0.66771
0.667024
0.666773
0.666163
0.665559
0.663881
0.663033
0.662006
0.660202
0.65855
0.658526
0.650861
0.651982
0.651561
0.650507
0.657637
0.7087
0.805926
0.846697
0.849152
0.849647
0.852734
0.855586
0.85796
0.859758
0.86194
0.864025
0.866652
0.869161
0.871989
0.874665
0.877812
0.881668
0.885642
0.888096
0.890745
0.894177
0.898144
0.901024
0.903655
0.906503
0.909628
0.91254
0.915278
0.917937
0.9205
0.92297
0.925316
0.927554
0.929676
0.931622
0.933471
0.935188
0.936694
0.938194
0.939343
0.940591
0.941449
0.942419
0.942954
0.943499
0.943683
0.943815
0.943719
0.943507
0.943114
0.942985
0.942827
0.942621
0.942606
0.942679
0.94257
0.942936
0.942592
0.943319
0.943242
0.943937
0.943883
0.945064
0.945312
0.946269
0.947037
0.948549
0.948331
0.949652
0.949335
0.949974
0.949848
0.950327
0.950689
0.951903
0.949284
0.949889
0.949997
0.950113
0.950026
0.949947
0.948362
0.949667
0.949578
0.950563
0.950529
0.951404
0.951739
0.953634
0.948972
0.961664
0.967754
0.962168
0.979555
0.995974
1.02009
1.02872
1.03728
1.03296
1.03257
1.02812
1.02468
1.02127
1.02197
1.01465
1.01241
1.00608
1.00395
1.00943
1.00727
1.00871
1.00842
1.01389
1.00988
1.01257
1.00833
1.0081
1.0123
1.01004
1.01361
1.00855
1.00851
1.00707
1.00921
1.00436
1.00556
1.01217
1.01403
1.02243
1.02096
1.02507
1.02646
1.03311
1.0313
1.03754
1.03284
1.0355
1.03299
1.03126
1.03414
1.03049
1.02349
1.02137
1.02224
1.01781
1.01865
1.01931
1.01891
1.0201
1.01994
1.02186
1.02171
1.02355
1.02441
1.02599
1.02639
1.02829
1.02896
1.03069
1.03141
1.03432
1.03353
1.03589
1.03765
1.03862
1.0391
1.04091
1.04147
1.04276
1.04375
1.04432
1.04488
1.04609
1.04714
1.0484
1.04915
1.04923
1.0503
1.05054
1.05135
1.05123
1.05181
1.05236
1.05198
1.05242
1.05172
1.05266
1.05181
1.05225
1.05126
1.05119
1.0505
1.05021
1.04962
1.04885
1.04844
1.04739
1.04683
1.04587
1.04491
1.04404
1.04264
1.04176
1.04021
1.03905
1.03777
1.03601
1.03446
1.03246
1.03063
1.02849
1.02606
1.02396
1.02135
1.01895
1.01616
1.01309
1.01007
1.00645
1.00118
0.99589
0.993215
0.990379
0.985314
0.980475
0.975133
0.969746
0.96427
0.958897
0.952591
0.946903
0.940834
0.934919
0.928486
0.923373
0.918561
0.914788
0.911205
0.910677
0.908156
0.913794
0.915378
0.915307
0.922989
0.923744
0.930322
0.935619
0.941184
0.945113
0.950197
0.954685
0.958699
0.965818
0.968629
0.97504