/*--------------------------------*- C++ -*----------------------------------*\
| =========                 |                                                 |
| \\      /  F ield         | OpenFOAM: The Open Source CFD Toolbox           |
|  \\    /   O peration     | Version:  v2006                                 |
|   \\  /    A nd           | Website:  www.openfoam.com                      |
|    \\/     M anipulation  |                                                 |
\*---------------------------------------------------------------------------*/
FoamFile
{
    version     2.0;
    format      ascii;
    class       volScalarField;
    location    "100";
    object      T;
}
// * * * * * * * * * * * * * * * * * * * * * * * * * * * * * * * * * * * * * //

dimensions      [0 0 0 1 0 0 0];


internalField   nonuniform List<scalar> 
93840
(
1.00331
1.00501
1.00428
1.00648
1.00319
1.00081
0.998645
1.00364
1.00797
1.00684
1.00738
1.00111
1.00315
1.00793
1.00637
1.01251
1.01183
1.01594
1.01345
1.01643
1.01575
1.01993
1.02953
1.03984
1.03767
1.03659
1.03288
1.03244
1.02828
1.03177
1.03401
1.03899
1.04082
1.03645
1.04376
1.03983
1.04471
1.04265
1.04579
1.04446
1.04739
1.04594
1.04797
1.04763
1.04923
1.04884
1.05039
1.04996
1.05107
1.05104
1.05197
1.05214
1.05319
1.05327
1.0539
1.05386
1.05444
1.05412
1.05543
1.05577
1.05603
1.05632
1.057
1.05701
1.05729
1.05753
1.05793
1.05784
1.0581
1.05821
1.05852
1.05862
1.0588
1.05869
1.05891
1.0588
1.05901
1.0589
1.05899
1.05895
1.05892
1.05897
1.05891
1.05882
1.05876
1.05857
1.05852
1.05829
1.05824
1.05811
1.05781
1.05753
1.05718
1.05681
1.05642
1.05586
1.05542
1.05484
1.05433
1.05366
1.05292
1.05222
1.05149
1.04966
1.0475
1.04706
1.04706
1.04568
1.044
1.04228
1.04053
1.03873
1.03699
1.03467
1.03241
1.02997
1.02751
1.02443
1.02179
1.01905
1.01675
1.0142
1.0129
1.01071
1.01037
1.01124
1.00933
1.01177
1.01051
1.01179
1.01271
1.01409
1.01424
1.01539
1.01555
1.01619
1.01772
1.01785
1.01896
1.01944
1.02009
1.02027
1.02108
1.02161
1.02182
1.02216
1.02267
1.02319
1.02378
1.0247
1.02508
1.02585
1.02634
1.0275
1.02823
1.02913
1.03023
1.03096
1.03262
1.03359
1.03486
1.03587
1.03734
1.03857
1.04037
1.04215
1.04422
1.04652
1.04856
1.05073
1.05399
1.05763
1.06142
1.06452
1.0688
1.0738
1.07917
1.08515
1.09088
1.09656
1.09967
1.10031
1.0963
1.07719
1.05711
1.01783
0.985419
0.957829
0.948738
0.94953
0.925057
0.91119
0.893272
0.891329
0.890696
0.884074
0.890201
0.888388
0.892212
0.892508
0.898913
0.903255
0.906481
0.909252
0.913269
0.916805
0.920659
0.92296
0.926965
0.929629
0.932758
0.93505
0.937829
0.939627
0.943011
0.945475
0.948368
0.949832
0.951822
0.952645
0.953899
0.953661
0.957196
0.959096
0.96223
0.963722
0.966806
0.968393
0.971372
0.972288
0.97345
0.971811
0.97338
0.972023
0.973129
0.974268
0.976224
0.976337
0.978314
0.978298
0.979905
0.979842
0.981085
0.980671
0.981555
0.982163
0.982344
0.979622
0.982954
0.982516
0.985898
0.994571
1.03438
1.07724
1.08845
1.08476
1.08047
1.0778
1.07555
1.07377
1.07214
1.07112
1.07035
1.06998
1.06982
1.06992
1.06994
1.07034
1.07153
1.07254
1.07229
1.07225
1.07312
1.07426
1.07448
1.07457
1.07495
1.07572
1.07625
1.07683
1.07726
1.07785
1.07827
1.07884
1.07918
1.07976
1.07993
1.08046
1.0805
1.08092
1.08079
1.08108
1.08056
1.08058
1.07936
1.07894
1.07697
1.07712
1.07362
1.07676
1.05403
1.0416
1.04399
1.04147
1.03957
1.0423
1.04393
1.04729
1.04977
1.05251
1.05355
1.05521
1.05508
1.05474
1.05404
1.05345
1.05385
1.05432
1.05521
1.05483
1.05443
1.05553
1.0582
1.0612
1.06461
1.06742
1.07039
1.0731
1.07521
1.07728
1.0787
1.08027
1.08118
1.0794
1.07986
1.08013
1.07701
1.07096
1.06467
1.05132
1.0466
1.03225
1.03085
1.03696
1.03957
1.0312
1.0205
1.01537
1.01667
1.01288
1.0161
1.01159
1.01186
1.00589
1.00769
1.00293
1.00123
1.00744
1.00683
1.00793
1.00368
0.998726
1.00069
1.00332
1.00633
1.00433
1.00504
1.00332
1.00339
1.00506
1.00427
1.00634
1.00327
1.00063
0.99867
1.00366
1.00776
1.00693
1.00744
1.0012
1.00285
1.00796
1.00573
1.01217
1.01172
1.01646
1.01269
1.01632
1.014
1.01785
1.02471
1.03688
1.03581
1.03488
1.03985
1.03981
1.04003
1.03834
1.03894
1.03665
1.04006
1.03901
1.04222
1.04193
1.04362
1.04425
1.0453
1.0457
1.0474
1.04724
1.04844
1.04892
1.04989
1.05014
1.05127
1.05146
1.05218
1.05261
1.05326
1.05381
1.05462
1.05485
1.05541
1.05582
1.0561
1.05611
1.05719
1.05768
1.05793
1.0582
1.05895
1.05894
1.05918
1.05946
1.05983
1.05974
1.05994
1.06007
1.06031
1.06041
1.06047
1.06037
1.06052
1.06034
1.06048
1.06028
1.06033
1.06018
1.06008
1.06003
1.05985
1.05968
1.05946
1.05918
1.05896
1.05859
1.0584
1.05806
1.05759
1.0571
1.05651
1.05595
1.05527
1.05447
1.05374
1.05285
1.05203
1.05097
1.04987
1.04875
1.04751
1.04513
1.04252
1.04176
1.04127
1.03926
1.03701
1.03465
1.03226
1.02979
1.02735
1.02425
1.02128
1.01806
1.01487
1.01107
1.00787
1.0045
1.00181
0.998911
0.997458
0.995132
0.995528
0.995924
0.994098
0.997009
0.995697
0.997563
0.99857
1.00029
1.00063
1.00209
1.00246
1.00343
1.00522
1.00558
1.00691
1.00765
1.00844
1.00888
1.00999
1.01058
1.01115
1.01163
1.0125
1.0132
1.01431
1.0153
1.01622
1.01731
1.01818
1.01983
1.02096
1.02245
1.02404
1.02549
1.0277
1.02933
1.03133
1.03306
1.03554
1.03756
1.04043
1.04325
1.04631
1.04967
1.05299
1.05626
1.06014
1.06419
1.06832
1.07296
1.07764
1.0825
1.08734
1.09206
1.09698
1.1015
1.10465
1.10465
1.10015
1.08982
1.07641
1.04485
1.01361
0.981925
0.960483
0.951106
0.924448
0.905492
0.884871
0.877355
0.869305
0.856691
0.859501
0.853591
0.855514
0.852753
0.856932
0.859816
0.862824
0.864865
0.868684
0.87181
0.87626
0.878634
0.883092
0.88606
0.890035
0.892401
0.895822
0.897656
0.901467
0.904127
0.907824
0.909582
0.912258
0.91283
0.915016
0.914677
0.918409
0.920267
0.924062
0.925667
0.929427
0.931196
0.935099
0.936196
0.938262
0.936432
0.938644
0.937038
0.938357
0.939241
0.942015
0.9421
0.944388
0.944328
0.94676
0.946642
0.94819
0.947834
0.948874
0.949714
0.950274
0.947542
0.950245
0.951741
0.952503
0.96539
1.01272
1.06157
1.07954
1.07813
1.07462
1.07263
1.07079
1.06938
1.06803
1.06735
1.06689
1.06688
1.06706
1.06752
1.06789
1.06864
1.07026
1.07176
1.07188
1.07214
1.07337
1.07495
1.07554
1.07595
1.07663
1.07772
1.07857
1.07945
1.08018
1.08106
1.08174
1.08258
1.08316
1.08396
1.08435
1.08507
1.0853
1.08592
1.08596
1.08651
1.08623
1.0867
1.08592
1.08634
1.08456
1.08539
1.08211
1.08441
1.07856
1.07168
1.06893
1.06612
1.05856
1.05769
1.06098
1.06429
1.06685
1.07024
1.07266
1.07539
1.07795
1.07968
1.08023
1.07967
1.07879
1.078
1.0775
1.0764
1.07563
1.07531
1.0764
1.07688
1.07807
1.07912
1.08042
1.08109
1.08207
1.08165
1.08236
1.083
1.08313
1.08313
1.08296
1.08162
1.08047
1.08023
1.07761
1.07171
1.0677
1.0568
1.03997
1.03892
1.04087
1.03539
1.02408
1.01658
1.01633
1.01348
1.01623
1.01199
1.01249
1.00619
1.00846
1.00325
1.00105
1.00739
1.0068
1.00814
1.00363
0.998732
1.0008
1.00322
1.00643
1.00425
1.00498
1.00332
1.00334
1.00506
1.00426
1.00649
1.00319
1.00068
0.998619
1.00366
1.00787
1.00692
1.00744
1.00134
1.00296
1.00827
1.0064
1.01214
1.01177
1.01598
1.01354
1.01621
1.01435
1.01691
1.0212
1.03342
1.0342
1.0316
1.03683
1.0385
1.03726
1.03754
1.03932
1.03994
1.04028
1.04017
1.04236
1.04177
1.0441
1.04364
1.0458
1.04512
1.04742
1.04709
1.04838
1.04876
1.04986
1.0502
1.05115
1.05155
1.05212
1.05271
1.05323
1.05393
1.05447
1.05508
1.05536
1.05593
1.05609
1.05631
1.05721
1.05779
1.05792
1.05828
1.05893
1.05892
1.05922
1.05939
1.05975
1.05965
1.05982
1.05989
1.06007
1.06015
1.06015
1.06002
1.06007
1.05985
1.05994
1.05965
1.05965
1.0594
1.05924
1.05909
1.0588
1.05855
1.05818
1.05782
1.05744
1.05694
1.05662
1.05608
1.05549
1.05479
1.05402
1.05327
1.05234
1.05135
1.05035
1.0492
1.04811
1.04672
1.04531
1.04382
1.0422
1.03945
1.03646
1.03533
1.03439
1.03195
1.02928
1.02643
1.0236
1.02063
1.01772
1.01415
1.01074
1.00706
1.00356
0.999455
0.996076
0.99248
0.989782
0.986897
0.985609
0.983373
0.983559
0.984303
0.982735
0.986102
0.984867
0.986914
0.988279
0.990247
0.990659
0.99252
0.993038
0.994372
0.996302
0.99693
0.998449
0.99944
1.00053
1.0012
1.00261
1.00352
1.00437
1.00517
1.00629
1.00739
1.00864
1.01011
1.01134
1.01279
1.0142
1.01596
1.01766
1.01936
1.0213
1.02309
1.02554
1.02743
1.02962
1.03161
1.03397
1.03642
1.03901
1.04166
1.04467
1.04761
1.05053
1.05374
1.05739
1.06125
1.06531
1.06906
1.07369
1.07857
1.08414
1.08978
1.09476
1.09968
1.1015
1.10186
1.09973
1.08959
1.06851
1.03958
1.00953
0.982018
0.961861
0.952572
0.930097
0.911822
0.890749
0.880413
0.872987
0.860104
0.861791
0.854163
0.853869
0.848977
0.850696
0.851591
0.852815
0.85194
0.853999
0.854609
0.857453
0.857548
0.860179
0.861587
0.864637
0.865681
0.868625
0.869638
0.872876
0.874703
0.878465
0.879602
0.882311
0.88303
0.885034
0.884044
0.887958
0.889488
0.893549
0.89494
0.89881
0.90046
0.904781
0.906021
0.908463
0.906878
0.909119
0.907753
0.909342
0.910228
0.913057
0.913097
0.916024
0.915887
0.918513
0.918281
0.920724
0.920061
0.921702
0.922298
0.923506
0.920664
0.923216
0.925663
0.92475
0.94191
0.992069
1.04409
1.06294
1.06455
1.06258
1.06194
1.06113
1.06057
1.05986
1.05976
1.0598
1.06028
1.06092
1.06182
1.06259
1.06375
1.06579
1.0677
1.06815
1.06875
1.07035
1.07229
1.07321
1.07391
1.07488
1.07626
1.07739
1.07853
1.07951
1.08063
1.08156
1.08262
1.08342
1.08442
1.08502
1.08591
1.08633
1.0871
1.08734
1.08805
1.088
1.08869
1.08821
1.08893
1.08763
1.08841
1.08627
1.08685
1.08507
1.08183
1.07901
1.07722
1.0731
1.06715
1.06473
1.06561
1.06749
1.06985
1.07195
1.07429
1.07683
1.07892
1.08138
1.08253
1.08246
1.08187
1.08167
1.08089
1.0806
1.08023
1.08034
1.08057
1.08108
1.0813
1.08184
1.08204
1.08257
1.08214
1.08226
1.08283
1.08285
1.08296
1.08206
1.0804
1.0808
1.08266
1.08106
1.07699
1.07929
1.07384
1.05334
1.04271
1.04146
1.03714
1.02702
1.01735
1.01677
1.01278
1.01636
1.01155
1.01171
1.00599
1.00725
1.00303
1.00107
1.00742
1.00679
1.008
1.00381
0.998771
1.00071
1.00333
1.00635
1.00432
1.00505
1.00332
1.00337
1.00501
1.00427
1.00636
1.00335
1.00063
0.998542
1.00372
1.00777
1.00713
1.00742
1.00122
1.0029
1.00787
1.00559
1.01224
1.01171
1.01636
1.01268
1.01632
1.01413
1.01517
1.02012
1.03036
1.0332
1.03047
1.0361
1.0377
1.03655
1.03766
1.03772
1.03831
1.03931
1.03985
1.04102
1.04178
1.04251
1.0437
1.04433
1.04498
1.04646
1.04643
1.0476
1.04819
1.04901
1.04933
1.05049
1.05081
1.0515
1.05199
1.05258
1.05321
1.05385
1.05417
1.0548
1.05526
1.05538
1.05564
1.05652
1.05708
1.05717
1.05752
1.05814
1.0582
1.05838
1.05861
1.05892
1.05878
1.05893
1.05903
1.05913
1.0592
1.05913
1.059
1.059
1.05873
1.05876
1.05842
1.05838
1.05805
1.05784
1.0576
1.05724
1.05691
1.05642
1.056
1.05548
1.05488
1.05444
1.05375
1.05306
1.05219
1.05129
1.05039
1.04926
1.04812
1.0469
1.04556
1.04425
1.0426
1.04096
1.03918
1.03728
1.03428
1.03103
1.02961
1.02832
1.02557
1.02264
1.01949
1.01638
1.01311
1.00992
1.0061
1.00249
0.998633
0.995003
0.990857
0.987483
0.983879
0.981312
0.978547
0.9774
0.975315
0.976196
0.97671
0.975437
0.978643
0.977754
0.980106
0.981489
0.983595
0.984304
0.986163
0.987025
0.98846
0.990611
0.99154
0.993194
0.994507
0.995646
0.996665
0.998355
0.999436
1.00074
1.00183
1.00332
1.00468
1.00655
1.00816
1.01006
1.01185
1.01345
1.01567
1.01736
1.01944
1.02146
1.0236
1.02607
1.02824
1.03057
1.03252
1.03505
1.03738
1.04009
1.04281
1.04579
1.04897
1.05217
1.05567
1.0593
1.06337
1.0672
1.07149
1.07593
1.08083
1.08568
1.0911
1.09577
1.09898
1.10111
1.10094
1.09918
1.08837
1.07357
1.04996
1.02391
0.996328
0.974385
0.961374
0.937362
0.917689
0.897734
0.885986
0.87667
0.863046
0.862824
0.8533
0.853869
0.847802
0.849422
0.848415
0.849516
0.848487
0.849296
0.849689
0.850477
0.850194
0.852118
0.851551
0.853523
0.853023
0.855224
0.854854
0.856991
0.857205
0.859956
0.860365
0.862683
0.862391
0.864829
0.863339
0.866924
0.868006
0.872085
0.873204
0.877077
0.87836
0.882844
0.883972
0.886695
0.884905
0.887753
0.885966
0.887709
0.888482
0.891699
0.891723
0.894564
0.894496
0.897725
0.897336
0.89992
0.899435
0.901162
0.90156
0.903748
0.900293
0.903998
0.90464
0.907854
0.921725
0.972752
1.02675
1.0468
1.05021
1.0497
1.05036
1.05066
1.05107
1.05112
1.05168
1.05227
1.05325
1.05435
1.0557
1.05686
1.0584
1.06082
1.06308
1.06385
1.06476
1.06666
1.06891
1.0701
1.07107
1.07229
1.07392
1.07529
1.07665
1.07786
1.07918
1.08032
1.08157
1.08258
1.08376
1.08454
1.08558
1.08618
1.08708
1.08749
1.08833
1.08848
1.08928
1.08908
1.08987
1.08918
1.08975
1.0887
1.08856
1.0878
1.08635
1.08462
1.08305
1.08147
1.07796
1.07418
1.07054
1.06931
1.06982
1.07112
1.07273
1.07479
1.07662
1.07865
1.08038
1.08273
1.08257
1.08307
1.0825
1.08243
1.08172
1.08178
1.08192
1.08202
1.0819
1.08228
1.08242
1.08281
1.08244
1.08264
1.08268
1.08267
1.08285
1.08241
1.08129
1.08157
1.08224
1.08112
1.07915
1.08462
1.08001
1.06406
1.05066
1.0442
1.03939
1.02985
1.01873
1.01704
1.01323
1.01613
1.01192
1.01256
1.00611
1.0087
1.00314
1.00096
1.00739
1.00666
1.00815
1.00358
0.998814
1.00076
1.00323
1.0064
1.00428
1.00495
1.00329
1.00336
1.00501
1.00424
1.00645
1.00314
1.00066
0.998674
1.00373
1.00791
1.00702
1.0074
1.00138
1.00302
1.00808
1.00646
1.01228
1.01175
1.0162
1.01346
1.01644
1.01376
1.01531
1.01614
1.02475
1.03216
1.02914
1.03313
1.03621
1.03505
1.03681
1.03688
1.03821
1.03855
1.03913
1.04039
1.04045
1.04213
1.042
1.04381
1.04353
1.04526
1.04537
1.04641
1.04685
1.04781
1.04826
1.04921
1.04974
1.05036
1.05084
1.05133
1.05208
1.05244
1.05313
1.05354
1.05402
1.05416
1.05457
1.05524
1.05588
1.05596
1.05631
1.05689
1.05693
1.0571
1.05733
1.05762
1.05748
1.05754
1.05767
1.05773
1.05777
1.05766
1.0575
1.05744
1.05716
1.05713
1.05673
1.05666
1.05624
1.05598
1.05565
1.05523
1.05482
1.05422
1.05374
1.05307
1.0524
1.05183
1.05101
1.05022
1.04918
1.04817
1.04711
1.04582
1.04454
1.04311
1.0416
1.04008
1.0382
1.03637
1.03433
1.03221
1.02899
1.02554
1.02389
1.0223
1.01936
1.01625
1.01289
1.00962
1.00616
1.00286
0.998935
0.995268
0.991366
0.987817
0.983761
0.980531
0.977055
0.974731
0.972107
0.97115
0.969309
0.97046
0.970862
0.969901
0.973404
0.972774
0.975073
0.97692
0.979104
0.979914
0.982168
0.983089
0.984829
0.987177
0.98827
0.990114
0.991751
0.9931
0.994374
0.996273
0.997664
0.999295
1.0007
1.0024
1.00387
1.00569
1.00738
1.00917
1.01084
1.01272
1.01476
1.01671
1.01869
1.02074
1.02283
1.02506
1.0273
1.02956
1.0315
1.03392
1.03638
1.03912
1.04178
1.04493
1.04777
1.05074
1.05397
1.05759
1.06157
1.06544
1.06951
1.07382
1.07877
1.08364
1.08904
1.0941
1.09797
1.09965
1.09958
1.09653
1.0883
1.07081
1.04843
1.02079
0.996584
0.976545
0.961764
0.942442
0.922817
0.902857
0.889955
0.882168
0.868315
0.867136
0.859118
0.858209
0.851863
0.853956
0.8516
0.853125
0.852013
0.852648
0.851728
0.85268
0.85254
0.854063
0.853428
0.854756
0.853945
0.855129
0.854242
0.855333
0.854668
0.856013
0.854674
0.856261
0.854527
0.855645
0.853047
0.855267
0.854799
0.857837
0.858182
0.861298
0.861901
0.865843
0.866754
0.869243
0.867435
0.869679
0.868309
0.869787
0.87026
0.873587
0.873649
0.876496
0.876202
0.879536
0.879259
0.882297
0.881143
0.883952
0.883723
0.886504
0.882372
0.886936
0.886733
0.891033
0.903938
0.954529
1.00943
1.03022
1.03453
1.03511
1.03703
1.03847
1.03992
1.04083
1.04217
1.0434
1.04497
1.0466
1.04845
1.05005
1.05204
1.05486
1.0575
1.0586
1.05984
1.06208
1.06464
1.06613
1.06737
1.06887
1.07076
1.07238
1.07398
1.07542
1.07696
1.07833
1.07978
1.08101
1.08237
1.08335
1.08456
1.08534
1.08638
1.08697
1.08792
1.08827
1.08914
1.08924
1.08999
1.08982
1.09025
1.08994
1.08974
1.0893
1.08861
1.0877
1.08664
1.08569
1.08419
1.082
1.07932
1.07613
1.07377
1.07269
1.07269
1.07387
1.075
1.07661
1.0777
1.07896
1.08022
1.08181
1.0826
1.08321
1.08271
1.0829
1.0825
1.08241
1.08181
1.08216
1.08242
1.08296
1.08269
1.08309
1.08251
1.083
1.08364
1.08271
1.08194
1.08175
1.08231
1.08176
1.08192
1.08599
1.07996
1.0679
1.05889
1.05211
1.04157
1.03297
1.02013
1.01745
1.0134
1.01616
1.01115
1.01155
1.00631
1.0071
1.00284
1.00107
1.00739
1.00687
1.00801
1.00378
0.998713
1.00061
1.0033
1.00634
1.00436
1.00493
1.00326
1.00334
1.00493
1.00426
1.00631
1.00331
1.00048
0.998506
1.00379
1.00777
1.0071
1.00753
1.00129
1.00317
1.00786
1.00566
1.01219
1.01174
1.01628
1.01281
1.0165
1.01386
1.01477
1.0157
1.02161
1.02873
1.02855
1.03086
1.03468
1.03266
1.03569
1.03455
1.03638
1.03692
1.03766
1.03874
1.03914
1.04023
1.04076
1.04187
1.04203
1.0437
1.04367
1.04465
1.04548
1.04601
1.04675
1.04739
1.04833
1.04864
1.04926
1.04966
1.05063
1.05083
1.05145
1.05194
1.05243
1.05256
1.05297
1.05376
1.05417
1.05432
1.05467
1.05518
1.05529
1.05541
1.05566
1.05591
1.05575
1.05583
1.0559
1.05593
1.05594
1.05583
1.05562
1.05551
1.05521
1.05512
1.05468
1.05456
1.05406
1.05376
1.05334
1.05285
1.05235
1.05165
1.05111
1.0503
1.04955
1.04886
1.04792
1.04704
1.04584
1.04473
1.04352
1.04208
1.04068
1.03905
1.0374
1.03568
1.03362
1.03163
1.02936
1.02707
1.02367
1.0201
1.01828
1.01646
1.0134
1.01021
1.00675
1.00344
0.999921
0.996618
0.992718
0.989128
0.985355
0.981956
0.978115
0.975109
0.971873
0.969817
0.967484
0.96688
0.965253
0.966131
0.967264
0.96665
0.969962
0.969612
0.972397
0.974285
0.976708
0.978064
0.980267
0.98172
0.98367
0.986224
0.98768
0.989886
0.991569
0.993326
0.994725
0.996805
0.998223
0.999888
1.00137
1.00314
1.00468
1.00654
1.00832
1.01026
1.01201
1.01369
1.01587
1.01764
1.01972
1.02172
1.0239
1.02608
1.02832
1.03069
1.03279
1.03528
1.03784
1.04046
1.04308
1.04601
1.04919
1.05245
1.05592
1.0591
1.06324
1.06683
1.07112
1.07513
1.07998
1.08409
1.089
1.09273
1.09684
1.09843
1.09838
1.09638
1.08711
1.07205
1.05312
1.02847
1.00631
0.983587
0.971463
0.946264
0.930349
0.907616
0.897731
0.885947
0.871802
0.86691
0.858008
0.856418
0.851173
0.851143
0.848334
0.849389
0.848399
0.849975
0.848955
0.849959
0.849182
0.85055
0.849996
0.851351
0.851217
0.851186
0.852118
0.851249
0.852003
0.852579
0.85153
0.851858
0.851471
0.851111
0.848373
0.849366
0.849164
0.85036
0.850556
0.8524
0.851792
0.854773
0.854793
0.856584
0.854174
0.856386
0.853982
0.855342
0.855734
0.858497
0.858371
0.861442
0.861084
0.864271
0.86362
0.867022
0.865863
0.868296
0.867829
0.871288
0.867007
0.871578
0.87138
0.875362
0.888221
0.937549
0.992537
1.01344
1.0182
1.01957
1.02253
1.02498
1.02742
1.0292
1.03135
1.03328
1.03548
1.03769
1.0401
1.04219
1.04465
1.04792
1.05097
1.05244
1.05403
1.05661
1.05952
1.06132
1.06286
1.06465
1.06682
1.06872
1.07057
1.07227
1.07404
1.07565
1.07732
1.07878
1.08034
1.08155
1.08293
1.08392
1.08511
1.0859
1.08696
1.08752
1.08844
1.08881
1.08954
1.08974
1.09014
1.09024
1.09029
1.09006
1.08974
1.08938
1.08867
1.08812
1.08728
1.08636
1.08499
1.08318
1.08067
1.07864
1.07659
1.07542
1.07528
1.07607
1.07669
1.07753
1.0781
1.07881
1.07974
1.08063
1.08158
1.08301
1.08319
1.08378
1.0831
1.08304
1.08259
1.08244
1.0827
1.08346
1.08284
1.08335
1.08371
1.0826
1.08212
1.08203
1.0824
1.08253
1.08225
1.08585
1.07658
1.06743
1.06627
1.06503
1.04679
1.03621
1.02172
1.01796
1.014
1.01604
1.01238
1.01266
1.00614
1.00854
1.00324
1.00104
1.00744
1.00664
1.0082
1.00361
0.998849
1.00075
1.00334
1.00638
1.0043
1.00491
1.00324
1.00337
1.00497
1.00423
1.0064
1.00313
1.00048
0.998663
1.00377
1.0079
1.00697
1.00753
1.0014
1.00296
1.0081
1.0064
1.01221
1.01184
1.01617
1.01318
1.01648
1.01391
1.01453
1.01385
1.01786
1.02442
1.02676
1.02783
1.03187
1.03101
1.034
1.03257
1.03584
1.03409
1.03706
1.03614
1.03807
1.03811
1.03925
1.03974
1.04057
1.0414
1.04205
1.0428
1.04323
1.04415
1.04475
1.04543
1.04647
1.04687
1.04717
1.04791
1.04849
1.04893
1.04945
1.0501
1.05029
1.05071
1.05107
1.0518
1.05215
1.05236
1.05272
1.05321
1.0533
1.05341
1.05365
1.05388
1.05369
1.05371
1.05388
1.0538
1.05383
1.05365
1.05341
1.05326
1.05296
1.05277
1.05229
1.05214
1.05155
1.05121
1.0507
1.05014
1.04955
1.04876
1.04816
1.04721
1.04641
1.04558
1.04455
1.04357
1.04224
1.04105
1.03968
1.03813
1.03661
1.03481
1.03305
1.03116
1.02895
1.02683
1.02439
1.02198
1.01846
1.01485
1.01293
1.01097
1.00791
1.00472
1.00128
0.998015
0.994564
0.99138
0.987619
0.984216
0.980619
0.977494
0.973923
0.971201
0.96829
0.966524
0.964419
0.964065
0.962754
0.964312
0.965287
0.965178
0.968759
0.968742
0.971696
0.973671
0.976446
0.977739
0.980351
0.981714
0.983711
0.986252
0.987642
0.989659
0.991608
0.993179
0.994635
0.996538
0.998047
0.999522
1.00108
1.00275
1.0044
1.00624
1.00812
1.00984
1.01169
1.01337
1.01568
1.01728
1.01961
1.02134
1.02388
1.02561
1.02821
1.0302
1.03254
1.03472
1.03731
1.03999
1.04278
1.04558
1.04861
1.05137
1.05512
1.0583
1.06229
1.06572
1.07014
1.07399
1.07901
1.0832
1.08785
1.09212
1.09542
1.09695
1.09687
1.09354
1.08501
1.06921
1.05129
1.02826
1.00791
0.985919
0.973075
0.94935
0.935262
0.912107
0.901994
0.889184
0.876738
0.872325
0.862979
0.862354
0.856383
0.853827
0.855706
0.853291
0.852948
0.852777
0.852311
0.853339
0.852554
0.853067
0.854275
0.853375
0.854455
0.853544
0.854136
0.854359
0.853833
0.854547
0.853758
0.853866
0.852821
0.852801
0.850446
0.850533
0.850248
0.85099
0.850976
0.851769
0.851771
0.85303
0.852924
0.8538
0.850565
0.85151
0.848248
0.848192
0.847398
0.849531
0.848479
0.850366
0.849535
0.85239
0.851519
0.854285
0.852852
0.855678
0.854921
0.85798
0.853813
0.857867
0.858118
0.861389
0.874406
0.921811
0.976606
0.997066
1.00194
1.0037
1.00744
1.01071
1.01398
1.01653
1.01946
1.02208
1.02491
1.0277
1.03069
1.0333
1.03627
1.03999
1.04349
1.04535
1.04732
1.05027
1.05354
1.05568
1.05753
1.05963
1.06211
1.06431
1.06644
1.06841
1.07043
1.07229
1.07421
1.07592
1.0777
1.07915
1.08073
1.08194
1.0833
1.08431
1.08548
1.08627
1.08725
1.08787
1.08863
1.08908
1.08955
1.08986
1.0901
1.09013
1.09013
1.08999
1.0898
1.08942
1.08905
1.08854
1.08782
1.0871
1.08585
1.08446
1.08255
1.08106
1.07912
1.07806
1.07758
1.07805
1.07796
1.0783
1.0786
1.07885
1.07932
1.07996
1.08046
1.08167
1.08247
1.08342
1.08375
1.08366
1.08397
1.08425
1.08324
1.08362
1.08369
1.08336
1.08256
1.08175
1.08189
1.08253
1.08311
1.08455
1.07529
1.06661
1.07359
1.07697
1.05382
1.04024
1.0243
1.01864
1.01346
1.01623
1.01123
1.01138
1.00603
1.00729
1.00291
1.00093
1.00735
1.00685
1.00817
1.00367
0.99874
1.00072
1.0034
1.00633
1.0043
1.0049
1.00325
1.00329
1.00501
1.0043
1.00627
1.00319
1.00044
0.998582
1.0038
1.00774
1.00721
1.00747
1.00146
1.00309
1.00774
1.00588
1.01203
1.01181
1.01613
1.01304
1.01643
1.01403
1.01462
1.01375
1.01562
1.02096
1.02401
1.02658
1.02925
1.02892
1.03096
1.03089
1.03285
1.03255
1.03418
1.03426
1.03572
1.0358
1.0372
1.0373
1.03848
1.03892
1.03981
1.04005
1.0413
1.04183
1.04241
1.0433
1.04411
1.04475
1.0446
1.04581
1.04617
1.04679
1.04717
1.04781
1.04799
1.04858
1.04881
1.0496
1.04975
1.05014
1.0504
1.051
1.05102
1.051
1.05137
1.05153
1.05138
1.05135
1.05147
1.0514
1.05139
1.05119
1.0509
1.0507
1.0504
1.05016
1.04962
1.04943
1.04875
1.04838
1.04777
1.04715
1.04647
1.04561
1.04494
1.04386
1.04302
1.04206
1.04095
1.03988
1.03845
1.0372
1.03568
1.03405
1.03244
1.03049
1.02866
1.02661
1.02432
1.02211
1.01957
1.01711
1.01356
1.01001
1.00808
1.00605
1.00308
1.00001
0.996694
0.993594
0.990291
0.98735
0.983856
0.980863
0.977671
0.974865
0.971999
0.969433
0.967342
0.965436
0.964712
0.963598
0.963959
0.96356
0.966442
0.965141
0.969525
0.96866
0.972897
0.973383
0.977639
0.977291
0.981329
0.981286
0.984954
0.985744
0.988853
0.989393
0.992499
0.992959
0.9957
0.9963
0.999273
0.999369
1.00261
1.0028
1.00602
1.00631
1.00946
1.00997
1.0131
1.01344
1.01732
1.01733
1.02143
1.02137
1.02548
1.02584
1.02966
1.0307
1.03388
1.03555
1.03872
1.04086
1.044
1.04641
1.05011
1.05259
1.05657
1.05922
1.06327
1.06649
1.07094
1.07452
1.07888
1.08296
1.08701
1.09052
1.09404
1.09546
1.09543
1.09275
1.08425
1.07024
1.05366
1.03385
1.01205
0.993179
0.975087
0.95614
0.938164
0.918412
0.9055
0.894172
0.877783
0.872767
0.863854
0.860098
0.854131
0.851928
0.851275
0.850027
0.850665
0.848286
0.8495
0.848471
0.850176
0.84939
0.850715
0.850061
0.850212
0.851237
0.850203
0.851048
0.850372
0.851121
0.850375
0.850963
0.850037
0.849661
0.846743
0.847078
0.846921
0.8479
0.847788
0.84881
0.848894
0.850379
0.850235
0.850909
0.848454
0.848352
0.845455
0.844491
0.843873
0.844433
0.843551
0.844423
0.842872
0.844607
0.843314
0.84545
0.843359
0.845253
0.844335
0.847103
0.843128
0.846399
0.847039
0.849576
0.862018
0.907569
0.96226
0.98181
0.986339
0.98827
0.992478
0.996287
1.00016
1.00326
1.00684
1.01006
1.01346
1.01679
1.02033
1.02346
1.02692
1.0311
1.03508
1.03735
1.03971
1.04303
1.04668
1.04918
1.05137
1.0538
1.05659
1.05912
1.06155
1.06382
1.06612
1.06826
1.07043
1.0724
1.07443
1.07613
1.07793
1.07939
1.08093
1.08218
1.08349
1.08451
1.08559
1.08642
1.08727
1.08791
1.0885
1.08896
1.08937
1.08959
1.08983
1.08996
1.09001
1.09
1.08974
1.08968
1.0892
1.08893
1.08838
1.08783
1.08686
1.08582
1.08447
1.08317
1.08145
1.08056
1.07969
1.07971
1.07937
1.07949
1.07936
1.07927
1.07957
1.07981
1.08023
1.08107
1.08091
1.08189
1.08247
1.08312
1.08288
1.0835
1.08299
1.08338
1.08269
1.08182
1.08179
1.08298
1.08334
1.08537
1.07678
1.06889
1.08051
1.08462
1.06084
1.04531
1.02735
1.01919
1.01427
1.01605
1.01208
1.01301
1.00609
1.00878
1.00318
1.00096
1.00742
1.00645
1.00828
1.0036
0.99885
1.00071
1.00335
1.00633
1.00429
1.00483
1.0032
1.00334
1.00496
1.00427
1.00627
1.00311
1.00052
0.998616
1.00383
1.00791
1.00695
1.00754
1.00132
1.00299
1.00795
1.00631
1.01197
1.01189
1.01616
1.0132
1.01649
1.01392
1.01454
1.01333
1.01472
1.01657
1.02123
1.02288
1.0258
1.02669
1.02827
1.02864
1.03023
1.0303
1.03189
1.03212
1.03318
1.03347
1.0346
1.03488
1.03606
1.03646
1.03718
1.03791
1.03845
1.03932
1.04004
1.04067
1.04173
1.04218
1.04213
1.04327
1.04363
1.04435
1.04464
1.04534
1.04537
1.04616
1.04624
1.04711
1.04705
1.04763
1.04788
1.04849
1.0485
1.04841
1.04878
1.04888
1.04877
1.04871
1.04893
1.04866
1.04872
1.04843
1.04815
1.04792
1.04758
1.04727
1.04669
1.04645
1.0457
1.04529
1.0446
1.04392
1.04316
1.04223
1.0415
1.04031
1.03944
1.03838
1.0372
1.03606
1.03455
1.03325
1.03162
1.02995
1.02826
1.02622
1.02436
1.02221
1.01991
1.01766
1.0151
1.01268
1.00918
1.00583
1.00398
1.00198
0.99921
0.996365
0.993351
0.990564
0.98775
0.985124
0.982211
0.97943
0.976654
0.974138
0.971574
0.969183
0.967258
0.96545
0.964804
0.963668
0.964015
0.963527
0.966349
0.965297
0.96995
0.96872
0.972999
0.973514
0.977828
0.977655
0.981448
0.981728
0.984929
0.986005
0.988936
0.98944
0.992689
0.993056
0.995885
0.996447
0.99925
0.999395
1.00233
1.00252
1.00595
1.00614
1.00958
1.00997
1.01283
1.01356
1.01664
1.01746
1.02079
1.0218
1.02525
1.02593
1.02965
1.0305
1.03387
1.03534
1.03862
1.0407
1.04405
1.04641
1.04977
1.05242
1.05592
1.05941
1.06278
1.06645
1.07017
1.07425
1.078
1.08236
1.08608
1.08958
1.09243
1.09385
1.09384
1.09054
1.08149
1.06802
1.05291
1.03066
1.01383
0.993086
0.977345
0.958077
0.940995
0.923576
0.909885
0.897386
0.8818
0.880027
0.866873
0.866877
0.858189
0.858235
0.85492
0.855694
0.853662
0.854676
0.852721
0.853205
0.852209
0.853749
0.852787
0.854121
0.853014
0.853886
0.852829
0.853816
0.852758
0.853426
0.852456
0.85313
0.852031
0.851757
0.848792
0.84935
0.848781
0.849736
0.849502
0.850344
0.850322
0.851615
0.851471
0.852035
0.849387
0.849355
0.846502
0.845161
0.844919
0.844409
0.844147
0.844114
0.843631
0.843507
0.842394
0.842511
0.841463
0.841607
0.840216
0.841299
0.837655
0.839038
0.839979
0.841133
0.851212
0.895376
0.94932
0.968806
0.972099
0.973927
0.978337
0.982443
0.986621
0.990013
0.993989
0.997642
1.00147
1.00521
1.00923
1.01281
1.01673
1.02133
1.02575
1.02846
1.03121
1.03491
1.03894
1.04182
1.04436
1.04713
1.05026
1.05313
1.05588
1.05847
1.06106
1.0635
1.06595
1.06821
1.07049
1.07248
1.07451
1.07624
1.07799
1.07948
1.08097
1.08222
1.08345
1.08448
1.08547
1.08627
1.08701
1.08757
1.08815
1.0885
1.08889
1.08923
1.08959
1.08974
1.08987
1.08991
1.08978
1.08975
1.08939
1.08935
1.08891
1.08851
1.0877
1.0872
1.08606
1.08486
1.08369
1.08286
1.08184
1.08161
1.08111
1.0809
1.08063
1.0805
1.08045
1.08087
1.07967
1.08007
1.08046
1.08091
1.08126
1.08154
1.08109
1.08147
1.08161
1.08153
1.08187
1.08272
1.08421
1.08577
1.08
1.07285
1.08632
1.08731
1.06557
1.05096
1.0304
1.02083
1.01363
1.01612
1.01174
1.01109
1.00609
1.00737
1.00295
1.00089
1.00729
1.00688
1.00821
1.00361
0.998738
1.00086
1.0033
1.00634
1.00433
1.00483
1.00328
1.00331
1.00489
1.00428
1.0062
1.0032
1.00035
0.998718
1.00385
1.00772
1.0072
1.00751
1.00164
1.00292
1.00773
1.00588
1.01188
1.01179
1.01619
1.01309
1.0165
1.01411
1.01477
1.01326
1.01414
1.01471
1.01708
1.02067
1.02284
1.02312
1.02511
1.02586
1.02736
1.02746
1.029
1.02895
1.0304
1.03059
1.03178
1.03211
1.03308
1.0335
1.0344
1.03465
1.03575
1.03666
1.03735
1.03773
1.03915
1.03917
1.03958
1.04027
1.04106
1.04139
1.04214
1.04246
1.04251
1.04346
1.04337
1.04424
1.04423
1.0449
1.04524
1.04574
1.04561
1.04549
1.04602
1.04595
1.04598
1.04578
1.04614
1.04569
1.04582
1.04541
1.04516
1.0449
1.04452
1.04416
1.04354
1.04327
1.04245
1.04201
1.04122
1.0405
1.03966
1.0387
1.03791
1.03662
1.03577
1.03459
1.0334
1.0322
1.03066
1.02933
1.02762
1.02597
1.02423
1.02217
1.02032
1.01813
1.01591
1.01369
1.0112
1.00889
1.00563
1.0026
1.001
0.999208
0.997061
0.994486
0.991823
0.989351
0.986879
0.984546
0.981857
0.979286
0.976638
0.974317
0.971811
0.969586
0.967481
0.965819
0.965179
0.964041
0.964082
0.964722
0.966729
0.965651
0.97012
0.969413
0.973201
0.974087
0.977747
0.978139
0.981467
0.982012
0.985175
0.98628
0.988993
0.989964
0.992705
0.993355
0.9959
0.996813
0.999419
0.999919
1.00278
1.00325
1.00623
1.00687
1.00974
1.01078
1.01351
1.01427
1.0177
1.01796
1.0214
1.02212
1.02588
1.02684
1.02999
1.03164
1.03426
1.03647
1.03919
1.04148
1.04448
1.0473
1.05051
1.05345
1.05697
1.06
1.06369
1.06692
1.07069
1.07432
1.07807
1.08159
1.08509
1.08823
1.09093
1.09227
1.09228
1.08905
1.08083
1.06786
1.05341
1.03517
1.01858
0.997884
0.982113
0.962522
0.947166
0.927813
0.91439
0.901256
0.885301
0.880436
0.868095
0.865019
0.856961
0.856475
0.852365
0.851841
0.850266
0.851211
0.850007
0.850784
0.849488
0.850537
0.849711
0.851083
0.850172
0.851253
0.849783
0.850429
0.849829
0.850459
0.850042
0.849996
0.849265
0.849213
0.845894
0.846386
0.846244
0.846725
0.847618
0.847616
0.848325
0.84891
0.8498
0.849297
0.848074
0.846694
0.845183
0.842802
0.843203
0.842251
0.842404
0.841473
0.841984
0.841132
0.841245
0.839885
0.839826
0.838562
0.838827
0.838422
0.835494
0.835941
0.835992
0.836395
0.843088
0.884898
0.938894
0.957993
0.96053
0.961793
0.966024
0.970022
0.974164
0.977491
0.981547