/*--------------------------------*- C++ -*----------------------------------*\
| =========                 |                                                 |
| \\      /  F ield         | OpenFOAM: The Open Source CFD Toolbox           |
|  \\    /   O peration     | Version:  v2006                                 |
|   \\  /    A nd           | Website:  www.openfoam.com                      |
|    \\/     M anipulation  |                                                 |
\*---------------------------------------------------------------------------*/
FoamFile
{
    version     2.0;
    format      ascii;
    class       volVectorField;
    location    "100";
    object      U;
}
// * * * * * * * * * * * * * * * * * * * * * * * * * * * * * * * * * * * * * //

dimensions      [0 1 -1 0 0 0 0];


internalField   nonuniform List<vector> 
93840
(
(0.866411 0.0259672 -8.48552e-17)
(0.859049 0.024454 -3.18114e-17)
(0.851189 0.0365396 9.23503e-17)
(0.858202 0.0297294 -1.43148e-16)
(0.852109 0.0407576 2.81219e-16)
(0.86425 0.0239432 -7.7952e-16)
(0.860735 0.0435676 1.37775e-16)
(0.855539 0.0217021 1.49708e-16)
(0.845571 0.0363284 -2.43225e-16)
(0.853543 0.0193925 -9.5367e-17)
(0.846105 0.0293041 -6.26534e-18)
(0.859567 0.0201308 5.68404e-16)
(0.855253 0.0261959 3.5403e-17)
(0.844338 0.0152726 1.04107e-16)
(0.84159 0.0230124 6.02927e-17)
(0.826909 0.0150017 1.25827e-16)
(0.824356 0.0237443 1.13875e-16)
(0.81604 0.0189867 -9.78857e-18)
(0.811926 0.0282092 6.20873e-17)
(0.811065 0.0251664 -5.82472e-18)
(0.805068 0.0261636 2.23273e-17)
(0.784473 0.0258122 1.72796e-17)
(0.734765 0.0228197 1.78881e-17)
(0.656821 0.00719811 1.19479e-17)
(0.629785 0.0279359 1.63398e-17)
(0.637129 0.0347687 1.19543e-17)
(0.644082 -0.0209295 1.69742e-17)
(0.615605 0.00034659 1.25489e-17)
(0.615718 0.00969716 1.52185e-17)
(0.585166 -0.0118707 1.23719e-17)
(0.55027 -0.00114605 1.32536e-17)
(0.510377 -0.00697506 1.17445e-17)
(0.501449 -0.0217206 1.19098e-17)
(0.531587 -0.0291617 1.18486e-17)
(0.479769 -0.0263226 1.17636e-17)
(0.50655 -0.0271888 1.18761e-17)
(0.467629 -0.0254205 1.15658e-17)
(0.488547 -0.0262596 1.18188e-17)
(0.457436 -0.022693 1.1552e-17)
(0.47164 -0.0233377 1.16624e-17)
(0.449906 -0.0198611 1.15285e-17)
(0.459497 -0.0202523 1.15115e-17)
(0.441112 -0.0175437 1.15207e-17)
(0.448477 -0.0175532 1.13611e-17)
(0.433958 -0.0156194 1.14367e-17)
(0.436924 -0.0153923 1.12999e-17)
(0.424951 -0.0131682 1.12362e-17)
(0.426395 -0.0122621 1.13017e-17)
(0.418379 -0.0108289 1.09676e-17)
(0.417094 -0.0098875 1.12759e-17)
(0.410415 -0.00817709 1.07662e-17)
(0.408552 -0.00734454 1.11186e-17)
(0.402247 -0.00636174 1.06357e-17)
(0.398774 -0.00436421 1.08847e-17)
(0.394169 -0.00148751 1.04716e-17)
(0.394921 -0.00017436 1.06291e-17)
(0.391637 0.000140041 1.03594e-17)
(0.390443 0.000460272 1.03657e-17)
(0.382312 0.00136694 1.02118e-17)
(0.380573 0.00373842 1.00261e-17)
(0.376638 0.00550133 1.00103e-17)
(0.376678 0.00625299 9.76766e-18)
(0.369782 0.00829966 9.74356e-18)
(0.371748 0.0106227 9.66285e-18)
(0.367833 0.011738 9.61195e-18)
(0.368167 0.0133189 9.42028e-18)
(0.365318 0.0152521 9.34665e-18)
(0.366798 0.0165767 9.33411e-18)
(0.365196 0.0178219 9.36568e-18)
(0.364612 0.0195354 9.47948e-18)
(0.364886 0.0209509 9.39098e-18)
(0.363542 0.0223865 9.78403e-18)
(0.365157 0.024163 9.7631e-18)
(0.364859 0.0254879 9.99753e-18)
(0.366311 0.0269233 9.14812e-18)
(0.366612 0.0285391 8.87754e-18)
(0.367953 0.0299125 9.83373e-18)
(0.368954 0.0315501 9.4976e-18)
(0.370281 0.0330723 9.73004e-18)
(0.372747 0.0343677 9.33129e-18)
(0.37314 0.0356795 8.89624e-18)
(0.375478 0.0372306 9.35876e-18)
(0.376679 0.0388762 9.14116e-18)
(0.379529 0.0406522 9.39571e-18)
(0.382425 0.0420508 8.47148e-18)
(0.384682 0.0435045 9.11582e-18)
(0.388365 0.0450622 8.7055e-18)
(0.390888 0.0463633 7.89779e-18)
(0.393925 0.0479362 8.02829e-18)
(0.396941 0.0497488 7.41436e-18)
(0.401213 0.0518045 9.3861e-18)
(0.406439 0.0534645 7.93064e-18)
(0.411178 0.0550707 7.79747e-18)
(0.416559 0.0567165 7.30574e-18)
(0.422298 0.0583889 9.34608e-18)
(0.428534 0.0600576 9.22612e-18)
(0.435217 0.0615067 1.15774e-17)
(0.441556 0.0630043 8.68106e-18)
(0.448562 0.0645266 1.05129e-17)
(0.45629 0.0661856 1.274e-17)
(0.464248 0.0674286 9.64016e-18)
(0.472217 0.0687017 1.1477e-17)
(0.479767 0.070768 1.35993e-17)
(0.49533 0.0745059 8.2469e-18)
(0.513252 0.0740409 8.92978e-18)
(0.518475 0.070655 1.13176e-18)
(0.520662 0.0711962 6.13042e-18)
(0.531913 0.0742176 -1.87702e-18)
(0.545331 0.0747865 6.03987e-18)
(0.558775 0.0749878 -2.23638e-18)
(0.572251 0.0744739 2.94875e-18)
(0.585828 0.0737993 -5.64293e-18)
(0.598782 0.0727829 1.35897e-19)
(0.615134 0.0722795 -6.09188e-18)
(0.630858 0.0698819 5.87539e-19)
(0.647011 0.067352 -2.9463e-18)
(0.662115 0.0640001 -2.19037e-18)
(0.679926 0.0613576 -3.89574e-18)
(0.695341 0.0559729 -3.20311e-18)
(0.710989 0.0514328 -5.05774e-18)
(0.723173 0.0447208 -4.72102e-18)
(0.736723 0.0398221 -4.54944e-18)
(0.744395 0.030462 -4.50412e-18)
(0.754995 0.0248313 -4.8517e-18)
(0.755228 0.0138286 -3.889e-18)
(0.753881 0.00785207 -4.78998e-18)
(0.762682 -0.00182975 -3.23389e-18)
(0.750737 -0.00753696 -3.73733e-18)
(0.756634 -0.0126196 -1.97451e-18)
(0.751575 -0.0210674 -2.07076e-18)
(0.746595 -0.0254324 -8.28649e-20)
(0.7416 -0.031686 4.25827e-20)
(0.738509 -0.0356524 1.89375e-18)
(0.734519 -0.0401214 1.14168e-18)
(0.732469 -0.0442978 2.87584e-18)
(0.729287 -0.0491468 9.18028e-19)
(0.722197 -0.0519024 2.87766e-18)
(0.721036 -0.0559808 2.06285e-18)
(0.715916 -0.0581616 3.41071e-18)
(0.714161 -0.0620924 2.58874e-18)
(0.711165 -0.0644792 3.61367e-18)
(0.710416 -0.0692695 1.60828e-18)
(0.705503 -0.0716575 1.95028e-18)
(0.703626 -0.0752402 1.96313e-18)
(0.701202 -0.0773969 9.06583e-19)
(0.699664 -0.0812714 -4.49749e-20)
(0.696938 -0.0843185 -1.52046e-19)
(0.695399 -0.0885146 -1.59212e-18)
(0.691847 -0.0925247 -1.94436e-18)
(0.688646 -0.0964471 -2.16277e-18)
(0.684724 -0.0994381 -3.92364e-18)
(0.681541 -0.104055 -3.79296e-18)
(0.677711 -0.107565 -5.39967e-18)
(0.673017 -0.112213 -4.9015e-18)
(0.668174 -0.116056 -5.82931e-18)
(0.663739 -0.120558 -6.1141e-18)
(0.657803 -0.124661 -6.8075e-18)
(0.652253 -0.129224 -6.27854e-18)
(0.644101 -0.133538 -7.16007e-18)
(0.637312 -0.137007 -5.52726e-18)
(0.630469 -0.140784 -5.79054e-18)
(0.624458 -0.145917 -4.33905e-18)
(0.616641 -0.151137 -5.27112e-18)
(0.60792 -0.157158 -4.42316e-18)
(0.598079 -0.162048 -5.29263e-18)
(0.586406 -0.168243 -4.40936e-18)
(0.574113 -0.172721 -5.24893e-18)
(0.559693 -0.17756 -4.47406e-18)
(0.546446 -0.182629 -6.6747e-18)
(0.530388 -0.18971 -5.16413e-18)
(0.511051 -0.194529 -7.08293e-18)
(0.487047 -0.197539 -6.26733e-18)
(0.46286 -0.201336 -7.32788e-18)
(0.438059 -0.205304 -7.00016e-18)
(0.408172 -0.207749 -7.02382e-18)
(0.369384 -0.204492 -7.74495e-18)
(0.326885 -0.200387 -7.12581e-18)
(0.271185 -0.184216 -7.7218e-18)
(0.213731 -0.16001 -7.93062e-18)
(0.142557 -0.117426 -9.14767e-18)
(0.0944211 -0.0717016 -8.59551e-18)
(-0.00952645 0.0831845 -2.80853e-17)
(-0.0170548 0.18174 -2.26034e-17)
(-0.0140737 0.422551 -2.0292e-17)
(0.105442 0.555165 -1.87976e-17)
(0.224676 0.737825 -1.83952e-17)
(0.448971 0.792194 -1.80066e-17)
(0.616294 0.798321 -1.74215e-17)
(0.742401 0.727071 -1.7757e-17)
(0.783196 0.684935 -1.73866e-17)
(0.888884 0.67673 -1.72778e-17)
(0.973879 0.642072 -1.68789e-17)
(1.05592 0.612209 -1.69294e-17)
(1.09154 0.566443 -1.6732e-17)
(1.11844 0.51822 -1.67329e-17)
(1.15266 0.491899 -1.63021e-17)
(1.15119 0.454325 -1.63339e-17)
(1.1689 0.429447 -1.57863e-17)
(1.16741 0.400996 -1.57169e-17)
(1.17755 0.378739 -1.56353e-17)
(1.1678 0.35601 -1.49007e-17)
(1.16394 0.337457 -1.48847e-17)
(1.15699 0.320562 -1.42111e-17)
(1.15532 0.30567 -1.42649e-17)
(1.14847 0.290111 -1.29678e-17)
(1.14351 0.277388 -1.36954e-17)
(1.13482 0.265493 -1.26241e-17)
(1.13163 0.254714 -1.30503e-17)
(1.12264 0.242826 -1.17926e-17)
(1.11877 0.2328 -1.23807e-17)
(1.11029 0.222119 -1.13531e-17)
(1.10691 0.212393 -1.20352e-17)
(1.09876 0.202324 -1.08763e-17)
(1.09625 0.193757 -1.14923e-17)
(1.08753 0.184688 -1.07006e-17)
(1.08326 0.176887 -1.11438e-17)
(1.07429 0.169075 -9.99036e-18)
(1.07097 0.162333 -1.06956e-17)
(1.063 0.153485 -9.71953e-18)
(1.06302 0.146994 -1.06141e-17)
(1.05788 0.138445 -9.64662e-18)
(1.06125 0.131285 -1.06491e-17)
(1.05 0.124257 -9.7844e-18)
(1.04614 0.119034 -1.04842e-17)
(1.03422 0.113011 -9.44338e-18)
(1.02997 0.108543 -9.2401e-18)
(1.01889 0.103266 -8.52788e-18)
(1.01475 0.0988423 -8.68012e-18)
(1.00293 0.093723 -7.3116e-18)
(0.999733 0.0898664 -7.46033e-18)
(0.993879 0.0851849 -6.83935e-18)
(1.00097 0.0788398 -7.1434e-18)
(0.994151 0.0724785 -5.32445e-18)
(1.00069 0.0663121 -4.82414e-18)
(0.996261 0.0607019 -3.3646e-18)
(0.993258 0.0569213 -3.76681e-18)
(0.984168 0.0522059 -2.44766e-18)
(0.984471 0.0479586 -2.29489e-18)
(0.975936 0.0440555 -1.21663e-18)
(0.977054 0.0398096 -4.2996e-19)
(0.968714 0.0360093 4.25947e-19)
(0.970057 0.03101 2.98438e-19)
(0.964038 0.0265061 6.11048e-19)
(0.965 0.0213412 1.0176e-18)
(0.96125 0.0174025 1.06689e-18)
(0.959002 0.0128097 7.50059e-19)
(0.955407 0.00919365 4.75271e-19)
(0.966633 0.00162869 -3.19056e-19)
(0.953304 0.000522002 -8.61388e-19)
(0.954405 -0.00295513 -2.01931e-18)
(0.940009 -0.0113002 -2.67016e-18)
(0.906296 -0.0125603 -3.84088e-18)
(0.734764 -0.0117869 -4.90202e-18)
(0.467281 -0.00768082 -6.58818e-18)
(0.343427 -0.0119631 -8.33689e-18)
(0.360779 -0.0148649 -9.43991e-18)
(0.39061 -0.0179957 -9.85443e-18)
(0.404668 -0.0210982 -1.01037e-17)
(0.416643 -0.0244037 -9.49472e-18)
(0.425022 -0.0271198 -1.061e-17)
(0.43212 -0.0300204 -9.47627e-18)
(0.434768 -0.0322937 -9.43751e-18)
(0.435288 -0.0346612 -7.57042e-18)
(0.432784 -0.0365307 -7.41647e-18)
(0.428849 -0.0383817 -5.3209e-18)
(0.423235 -0.0395382 -6.24207e-18)
(0.417856 -0.041065 -3.74885e-18)
(0.409598 -0.0434541 -4.69191e-18)
(0.393636 -0.0443472 -1.87288e-18)
(0.379729 -0.0416041 -2.27027e-18)
(0.37776 -0.0406648 -9.74654e-19)
(0.37356 -0.0431522 -1.0989e-18)
(0.358968 -0.0450011 1.16271e-18)
(0.341804 -0.042793 5.33691e-19)
(0.334059 -0.0405976 1.73158e-18)
(0.328365 -0.0408681 2.24073e-18)
(0.318017 -0.0418928 4.71613e-18)
(0.30385 -0.0413108 3.99137e-18)
(0.291558 -0.0399755 5.65084e-18)
(0.28001 -0.0389481 7.07425e-18)
(0.268255 -0.0379987 8.99368e-18)
(0.25617 -0.0369709 1.13191e-17)
(0.244 -0.0358148 1.18049e-17)
(0.23167 -0.0345827 1.11147e-17)
(0.219242 -0.0332168 1.20864e-17)
(0.2069 -0.0316238 9.56158e-18)
(0.195278 -0.030107 9.14616e-18)
(0.183468 -0.028565 7.6792e-18)
(0.172041 -0.0270741 1.00138e-17)
(0.159978 -0.0254016 7.94068e-18)
(0.14842 -0.0237914 9.93132e-18)
(0.135872 -0.0219379 8.29814e-18)
(0.123394 -0.0200831 4.65063e-18)
(0.109712 -0.0178686 8.98053e-18)
(0.095683 -0.0155809 6.41389e-18)
(0.0805232 -0.0131364 8.13736e-18)
(0.0668867 -0.0109231 4.17554e-18)
(0.0532266 -0.00864918 1.10729e-17)
(0.0407273 -0.00646502 2.28261e-18)
(0.0289213 -0.0031864 2.69051e-17)
(0.00645577 0.00100116 -3.5683e-19)
(-0.0100962 0.0011822 -4.56196e-19)
(-0.0123694 -0.000142369 -2.28323e-18)
(-0.0113187 0.000686999 4.82486e-18)
(-0.00904722 0.000646975 8.98188e-18)
(-0.00756549 0.000897531 3.39739e-18)
(-0.00867882 0.00116479 2.79809e-17)
(-0.0100606 0.00199684 1.9619e-18)
(-0.0111637 0.00169511 1.08915e-17)
(-0.0120357 0.0025331 3.27837e-18)
(-0.0117632 0.00197624 1.63027e-17)
(-0.0120867 0.00208259 3.23693e-18)
(-0.0109873 0.00146325 1.55688e-17)
(-0.0107204 0.00209969 1.2484e-17)
(-0.00802004 0.00093885 1.28464e-17)
(-0.00716835 0.00093458 2.38251e-17)
(-0.00488817 0.000383059 5.2544e-18)
(-0.00480126 0.00146536 9.98477e-18)
(-0.00339011 0.000538502 2.35674e-18)
(-0.00261627 0.000958397 1.87025e-17)
(-0.00119373 6.14873e-05 -9.71615e-18)
(-0.00132984 0.00151268 1.39745e-17)
(-0.00109233 0.000168976 -2.69434e-18)
(-0.00228706 0.00148222 5.24046e-20)
(-0.00339528 0.000498426 -4.50518e-18)
(-0.0063155 0.00153645 -6.70247e-18)
(-0.0100868 0.00274079 -7.06652e-18)
(-0.0147927 0.00308966 -3.06574e-18)
(-0.0169234 0.00436933 -5.30657e-18)
(-0.0195208 0.00379664 -5.44875e-19)
(-0.0183865 0.00121421 -2.61846e-18)
(-0.0156017 0.000269421 -2.28946e-19)
(-0.00790485 -0.00586112 1.62142e-18)
(0.00509235 -0.0176393 4.77519e-19)
(0.0475751 -0.0393601 1.78036e-18)
(0.0645275 -0.0711631 2.15914e-18)
(0.12216 0.021004 2.96182e-18)
(0.222992 0.0113496 8.26021e-18)
(0.309531 0.0106709 6.24982e-18)
(0.444828 0.0279306 1.19364e-17)
(0.482616 0.0195401 1.05125e-17)
(0.616378 -0.0121045 1.37991e-17)
(0.656352 0.04621 1.44688e-17)
(0.630231 0.0274448 1.75362e-17)
(0.639009 0.0075248 9.36622e-18)
(0.723511 0.0237047 1.53002e-17)
(0.781479 0.0257092 6.70325e-18)
(0.80801 0.0260832 3.7384e-17)
(0.810026 0.0248349 -2.27545e-17)
(0.813834 0.028016 8.34082e-17)
(0.81558 0.0189349 2.44769e-17)
(0.82462 0.0227886 1.34143e-16)
(0.828265 0.0155446 -6.17815e-17)
(0.843669 0.0231062 1.79049e-16)
(0.845219 0.0145609 6.50494e-17)
(0.855418 0.0263269 4.0218e-16)
(0.859339 0.0197906 -1.43697e-16)
(0.845778 0.0296071 2.71335e-16)
(0.853317 0.0194898 3.0252e-17)
(0.845951 0.036366 -1.21645e-16)
(0.853874 0.0225602 -1.7965e-16)
(0.860481 0.0441374 -2.39122e-16)
(0.863659 0.0242723 -3.08331e-16)
(0.851942 0.0411794 2.41476e-16)
(0.858136 0.0300908 1.95656e-16)
(0.851251 0.0366374 2.13074e-17)
(0.859045 0.0248229 -4.09974e-17)
(0.866418 0.0259835 -8.98865e-17)
(0.866408 0.0261394 -8.97452e-17)
(0.859047 0.0247097 -4.3718e-17)
(0.85122 0.0366553 2.65584e-17)
(0.858149 0.0301137 1.86596e-16)
(0.85192 0.0411752 1.87184e-16)
(0.863579 0.0242427 -2.57357e-16)
(0.860815 0.0440506 -5.08694e-17)
(0.854229 0.0225014 -2.27136e-16)
(0.846047 0.0363513 3.54989e-17)
(0.853469 0.019431 1.06723e-16)
(0.845632 0.0297369 3.63206e-16)
(0.85928 0.0197248 -2.60911e-16)
(0.855913 0.0262196 2.76669e-16)
(0.844389 0.0151009 4.58925e-17)
(0.844159 0.0229236 3.82862e-16)
(0.827949 0.0157584 -5.34911e-17)
(0.82447 0.0235203 1.33788e-16)
(0.815634 0.019326 -3.80502e-17)
(0.814253 0.0279908 1.15963e-16)
(0.812023 0.0245979 -1.62568e-17)
(0.813157 0.0263687 4.51087e-17)
(0.796734 0.0265986 -4.04396e-18)
(0.763401 0.0256035 2.59267e-17)
(0.683029 0.0101057 8.47281e-18)
(0.64901 0.0292378 1.6665e-17)
(0.664868 0.0364795 1.17668e-17)
(0.60691 -0.00532656 1.45463e-17)
(0.601275 0.00764862 1.28852e-17)
(0.596125 0.0104126 1.33125e-17)
(0.585369 -0.00914556 1.31866e-17)
(0.579685 -0.00664817 1.3134e-17)
(0.572613 -0.0198704 1.30309e-17)
(0.570329 -0.00315283 1.29372e-17)
(0.55725 -0.0244663 1.29737e-17)
(0.551122 -0.0157962 1.2861e-17)
(0.541775 -0.023597 1.28345e-17)
(0.535223 -0.0187998 1.2742e-17)
(0.528552 -0.0225139 1.28413e-17)
(0.522092 -0.0188838 1.26464e-17)
(0.515863 -0.0200699 1.26875e-17)
(0.511734 -0.0178596 1.25904e-17)
(0.505443 -0.0174949 1.25608e-17)
(0.500403 -0.0155831 1.24772e-17)
(0.495763 -0.0153542 1.24176e-17)
(0.4912 -0.0137067 1.23892e-17)
(0.485707 -0.0135982 1.22414e-17)
(0.481298 -0.0115478 1.22688e-17)
(0.476164 -0.0109404 1.21465e-17)
(0.473228 -0.00946932 1.20441e-17)
(0.467448 -0.00852331 1.21172e-17)
(0.464668 -0.00693166 1.17676e-17)
(0.459103 -0.00585007 1.20172e-17)
(0.455761 -0.00471102 1.15729e-17)
(0.4511 -0.00282974 1.18389e-17)
(0.448101 -0.000658721 1.13847e-17)
(0.446129 0.00112506 1.16134e-17)
(0.443821 0.00155131 1.1259e-17)
(0.441228 0.00243189 1.13276e-17)
(0.435268 0.00306221 1.11152e-17)
(0.432583 0.00565025 1.1028e-17)
(0.429301 0.00706808 1.10025e-17)
(0.428376 0.00838508 1.07587e-17)
(0.423017 0.0102969 1.08091e-17)
(0.424017 0.0125344 1.05534e-17)
(0.420422 0.0140464 1.05614e-17)
(0.420762 0.0156448 1.04395e-17)
(0.418132 0.0177754 1.03671e-17)
(0.419395 0.0191836 1.02189e-17)
(0.418021 0.0208026 1.02468e-17)
(0.417636 0.0222725 1.01457e-17)
(0.417947 0.0242392 9.9298e-18)
(0.416886 0.0254763 9.7645e-18)
(0.418682 0.0276515 9.95815e-18)
(0.418363 0.0290919 9.5859e-18)
(0.420254 0.0306701 1.00848e-17)
(0.420556 0.0325717 1.00034e-17)
(0.422332 0.034035 9.82559e-18)
(0.423462 0.0359611 9.7198e-18)
(0.425091 0.0375879 1.04037e-17)
(0.427803 0.0391745 9.9271e-18)
(0.428496 0.040688 1.03e-17)
(0.431347 0.0424382 1.01993e-17)
(0.432887 0.0443125 1.02963e-17)
(0.436206 0.0462459 9.5016e-18)
(0.43944 0.0479059 9.83959e-18)
(0.442202 0.0495746 9.5001e-18)
(0.446389 0.0513335 9.4781e-18)
(0.449388 0.0529175 9.61258e-18)
(0.453152 0.0546879 9.41374e-18)
(0.456878 0.0567237 9.46367e-18)
(0.46182 0.0589247 9.54412e-18)
(0.46776 0.060831 7.70165e-18)
(0.473196 0.0626694 1.00541e-17)
(0.479455 0.0645262 9.44946e-18)
(0.486005 0.0664653 1.13564e-17)
(0.4931 0.0683383 1.06142e-17)
(0.50067 0.0700049 1.12941e-17)
(0.507971 0.0717395 1.19369e-17)
(0.516021 0.0734015 1.19379e-17)
(0.524787 0.0752278 1.01747e-17)
(0.533782 0.0766375 1.24265e-17)
(0.543062 0.0780914 1.18047e-17)
(0.552119 0.0801587 7.47361e-18)
(0.568628 0.0839135 7.60039e-18)
(0.586532 0.0836761 6.0131e-18)
(0.592768 0.0804414 4.5525e-18)
(0.597036 0.0810156 5.12459e-18)
(0.609733 0.0838547 9.88086e-19)
(0.624165 0.08437 1.83586e-18)
(0.638818 0.0844847 -2.81976e-18)
(0.653485 0.0838326 8.506e-19)
(0.668313 0.0829944 -4.42959e-18)
(0.682612 0.0816276 -1.97181e-19)
(0.700119 0.0809515 -4.3586e-18)
(0.716781 0.0780703 -5.3135e-19)
(0.733947 0.0751427 -4.11128e-18)
(0.749927 0.0712193 -1.85362e-18)
(0.7683 0.0679117 -4.10378e-18)
(0.783969 0.0620147 -3.30627e-18)
(0.799909 0.0566621 -5.10379e-18)
(0.811912 0.0494599 -3.78227e-18)
(0.825246 0.0433586 -6.48924e-18)
(0.832405 0.0337507 -4.63013e-18)
(0.84241 0.0271264 -5.97332e-18)
(0.841668 0.0156121 -4.35414e-18)
(0.840492 0.00972261 -4.96902e-18)
(0.848021 0.00107169 -3.25368e-18)
(0.836023 -0.00716867 -3.53684e-18)
(0.841393 -0.0117131 -1.50394e-18)
(0.835009 -0.0212923 -1.41195e-18)
(0.830132 -0.0259981 7.6194e-19)
(0.824325 -0.0325951 7.34035e-19)
(0.821032 -0.0368689 2.48438e-18)
(0.816277 -0.0416885 1.84982e-18)
(0.81368 -0.0465026 3.06887e-18)
(0.809621 -0.0517553 2.448e-18)
(0.802331 -0.0553895 3.5773e-18)
(0.800521 -0.0591702 2.80559e-18)
(0.794826 -0.063015 4.37594e-18)
(0.792635 -0.0659447 3.30348e-18)
(0.788707 -0.0706394 4.12792e-18)
(0.787362 -0.0742815 2.77884e-18)
(0.78169 -0.0786389 2.64416e-18)
(0.779473 -0.0813587 6.5969e-19)
(0.775996 -0.08576 3.38471e-19)
(0.77376 -0.089136 -1.66874e-18)
(0.770004 -0.0932334 -1.79228e-18)
(0.767642 -0.0970823 -3.78487e-18)
(0.763075 -0.101764 -3.1302e-18)
(0.759248 -0.105455 -5.08823e-18)
(0.753989 -0.109796 -4.46516e-18)
(0.750018 -0.113481 -6.44059e-18)
(0.744866 -0.118333 -5.8274e-18)
(0.739307 -0.122104 -7.05074e-18)
(0.733233 -0.126531 -6.86184e-18)
(0.72773 -0.13083 -7.02284e-18)
(0.720381 -0.13517 -6.77642e-18)
(0.713398 -0.139795 -6.5786e-18)
(0.703972 -0.144046 -5.49472e-18)
(0.695862 -0.147467 -5.3956e-18)
(0.686851 -0.151016 -4.31249e-18)
(0.678492 -0.15569 -3.68138e-18)
(0.66794 -0.16073 -2.86624e-18)
(0.656659 -0.165114 -2.92235e-18)
(0.643042 -0.170465 -2.22687e-18)
(0.628357 -0.174046 -1.98883e-18)
(0.612397 -0.178721 -1.50946e-18)
(0.594552 -0.181181 -3.08017e-18)
(0.576601 -0.184321 -1.23047e-18)
(0.554984 -0.187636 -3.91013e-18)
(0.530394 -0.191343 -1.95955e-18)
(0.503204 -0.19227 -4.21221e-18)
(0.475544 -0.19045 -1.84228e-18)
(0.442567 -0.187629 -3.84745e-18)
(0.405678 -0.186132 -3.17758e-18)
(0.363783 -0.180274 -4.25806e-18)
(0.319253 -0.172063 -4.76356e-18)
(0.270707 -0.157554 -5.73661e-18)
(0.220725 -0.128673 -5.72774e-18)
(0.162555 -0.0821028 -8.93971e-18)
(0.115187 -0.0158755 -7.90856e-18)
(0.0570821 0.085592 -2.37195e-17)
(0.0493823 0.217711 -1.59996e-17)
(0.0493178 0.34828 -1.50705e-17)
(0.143326 0.448293 -1.23148e-17)
(0.275881 0.607232 -1.28261e-17)
(0.458731 0.673165 -1.10599e-17)
(0.617172 0.707065 -1.19383e-17)
(0.747571 0.677444 -1.12346e-17)
(0.807998 0.661614 -1.1681e-17)
(0.913897 0.662717 -1.11687e-17)
(1.0021 0.641414 -1.16688e-17)
(1.08538 0.614099 -1.11121e-17)
(1.13444 0.573151 -1.18557e-17)
(1.17182 0.537733 -1.15358e-17)
(1.2202 0.51506 -1.2215e-17)
(1.22795 0.479945 -1.17438e-17)
(1.25434 0.455251 -1.24781e-17)
(1.25852 0.430162 -1.17093e-17)
(1.27495 0.408553 -1.24072e-17)
(1.27087 0.388139 -1.16804e-17)
(1.27158 0.371627 -1.25631e-17)
(1.26711 0.353289 -1.18198e-17)
(1.26746 0.338394 -1.24964e-17)
(1.26211 0.322883 -1.16902e-17)
(1.25936 0.309478 -1.24592e-17)
(1.25108 0.295506 -1.17021e-17)
(1.24817 0.283154 -1.21568e-17)
(1.23903 0.271508 -1.14845e-17)
(1.23598 0.260721 -1.1838e-17)
(1.22726 0.248528 -1.08719e-17)
(1.2241 0.238076 -1.11047e-17)
(1.21548 0.226563 -1.04495e-17)
(1.21352 0.216985 -1.1047e-17)
(1.20489 0.206739 -1.06306e-17)
(1.2015 0.198908 -1.10574e-17)
(1.1923 0.189768 -1.06666e-17)
(1.18935 0.181557 -1.13249e-17)
(1.18041 0.173345 -1.04701e-17)
(1.18082 0.165566 -1.13372e-17)
(1.17498 0.155248 -1.06463e-17)
(1.17892 0.147705 -1.14141e-17)
(1.16831 0.140622 -1.04544e-17)
(1.16539 0.134493 -1.10505e-17)
(1.15352 0.12811 -1.00695e-17)
(1.14987 0.12292 -1.12709e-17)
(1.13868 0.116964 -9.55956e-18)
(1.13495 0.111933 -1.04818e-17)
(1.12292 0.106314 -9.23837e-18)
(1.11972 0.101775 -9.70102e-18)
(1.1125 0.0960835 -8.02645e-18)
(1.11905 0.0892631 -8.28272e-18)
(1.1121 0.0823952 -6.67476e-18)
(1.11831 0.0762422 -6.17915e-18)
(1.11431 0.0694122 -5.31576e-18)
(1.11204 0.0643358 -4.32923e-18)
(1.10286 0.0598891 -3.37537e-18)
(1.10329 0.0552294 -2.81745e-18)
(1.09465 0.0507573 -1.85163e-18)
(1.09569 0.0456371 -1.14038e-18)
(1.08729 0.0408008 -6.96669e-19)
(1.08833 0.0353571 1.50581e-19)
(1.08223 0.0311352 5.49572e-19)
(1.08276 0.0250057 9.17776e-19)
(1.07936 0.0207248 9.48761e-19)
(1.07663 0.0146042 9.00881e-19)
(1.07324 0.0109236 6.92608e-19)
(1.082 0.00293903 -2.69702e-20)
(1.07373 0.000972851 -5.82861e-19)
(1.06757 -0.00206601 -1.69482e-18)
(1.06454 -0.0120914 -2.46415e-18)
(1.01981 -0.00939252 -3.75978e-18)
(0.843351 -7.67854e-05 -4.92791e-18)
(0.606219 0.0030816 -6.58929e-18)
(0.47237 -0.00933468 -8.39557e-18)
(0.471172 -0.021733 -9.76916e-18)
(0.490032 -0.0254257 -1.06035e-17)
(0.497694 -0.0276476 -1.0744e-17)
(0.50486 -0.0311029 -1.13307e-17)
(0.50941 -0.0337264 -1.04095e-17)
(0.513679 -0.0366555 -1.03552e-17)
(0.51422 -0.0388104 -9.82047e-18)
(0.513088 -0.0410946 -1.00811e-17)
(0.509129 -0.0429457 -9.99589e-18)
(0.50395 -0.0448392 -9.23777e-18)
(0.497084 -0.0460649 -7.77687e-18)
(0.490402 -0.0476798 -7.76872e-18)
(0.481131 -0.0499257 -6.21251e-18)
(0.464712 -0.0508547 -5.3071e-18)
(0.4496 -0.0484168 -4.99655e-18)
(0.445516 -0.047703 -3.28979e-18)
(0.439951 -0.0498774 -2.37453e-18)
(0.425017 -0.0513282 -6.55178e-19)
(0.407195 -0.049279 3.4981e-19)
(0.397673 -0.0473491 3.10421e-18)
(0.39036 -0.0475191 1.91007e-18)
(0.379085 -0.0482913 3.18651e-18)
(0.364195 -0.0476109 5.12435e-18)
(0.350814 -0.0462896 6.46378e-18)
(0.338091 -0.0451895 8.8263e-18)
(0.325213 -0.0440868 8.13854e-18)
(0.312066 -0.0429179 9.16599e-18)
(0.298829 -0.0416031 1.12312e-17)
(0.285448 -0.0402422 1.16771e-17)
(0.271973 -0.0387405 1.10918e-17)
(0.258604 -0.0370553 1.27637e-17)
(0.245878 -0.0354066 1.16294e-17)
(0.233051 -0.0337328 1.09045e-17)
(0.220593 -0.0320741 9.65625e-18)
(0.207567 -0.0302362 1.05035e-17)
(0.195039 -0.0283422 9.07896e-18)
(0.181532 -0.0261838 9.37558e-18)
(0.168241 -0.0239483 8.0885e-18)
(0.153829 -0.0213943 9.83063e-18)
(0.13977 -0.0188476 7.60531e-18)
(0.124396 -0.0162776 8.96671e-18)
(0.10957 -0.0139578 5.11205e-18)
(0.0953725 -0.0116911 6.02565e-18)
(0.0812043 -0.00948063 4.01401e-18)
(0.0701015 -0.00637861 8.42281e-18)
(0.059198 -0.00333988 1.48641e-17)
(0.0458474 -0.00305059 5.16599e-18)
(0.0306863 -0.00292289 1.85652e-17)
(0.0160014 -0.00233848 -1.94384e-18)
(0.00682643 -0.00127347 -3.73113e-18)
(-0.000100558 0.000371372 1.52717e-17)
(-0.00235607 0.00160489 -7.97367e-18)
(-0.00437681 0.00175229 -8.60489e-18)
(-0.00556109 0.00201627 1.85033e-18)
(-0.00780354 0.00155801 -6.4175e-19)
(-0.00825118 0.00189632 -2.67696e-18)
(-0.00971013 0.00157865 9.52114e-20)
(-0.00985915 0.00185913 -4.17926e-18)
(-0.0116036 0.00110517 -6.82698e-19)
(-0.0109865 0.00141604 -4.2999e-18)
(-0.0112429 0.000958796 -3.64371e-18)
(-0.00998246 0.00121731 -1.67178e-18)
(-0.00971444 0.00082929 1.85251e-19)
(-0.00903767 0.00111905 -7.95153e-18)
(-0.00860513 0.000151136 -9.28089e-19)
(-0.00693812 0.000426483 -8.0723e-18)
(-0.00669511 0.000689298 -2.2095e-18)
(-0.00528637 0.00129641 -9.86064e-18)
(-0.00682539 0.00200942 -4.51859e-18)
(-0.00655314 0.0043706 -6.03305e-18)
(-0.0102828 0.00496967 -5.28438e-18)
(-0.0114361 0.00735556 -6.02722e-18)
(-0.0157916 0.00705955 -2.79118e-18)
(-0.0175306 0.00705836 -9.35501e-19)
(-0.0203723 0.00412121 -1.04388e-18)
(-0.0203377 0.000637214 -6.20871e-19)
(-0.0218287 -0.00278603 -6.43075e-19)
(-0.0203634 -0.00794364 4.1999e-19)
(-0.0221062 -0.019364 1.46726e-18)
(-0.0109894 -0.0331435 2.71781e-18)
(-0.019463 -0.0430594 3.32153e-18)
(-0.00632149 -0.0272161 4.34391e-18)
(0.0463212 -0.0241629 6.50454e-18)
(0.0966015 -0.0263066 4.77069e-18)
(0.215183 0.020378 1.0629e-17)
(0.263638 0.0157535 6.50763e-18)
(0.4262 -0.0150012 1.34722e-17)
(0.575739 0.0513736 9.93516e-18)
(0.603494 0.0299216 2.20191e-17)
(0.622629 0.00413454 3.43523e-18)
(0.688312 0.0220531 2.36817e-17)
(0.759934 0.0260283 1.00179e-17)
(0.801447 0.0253473 2.65018e-17)
(0.81105 0.0249737 7.95683e-18)
(0.811434 0.0282711 3.91587e-17)
(0.815044 0.0188862 2.3065e-17)
(0.824202 0.0240997 4.00702e-17)
(0.826489 0.0150506 2.52886e-16)
(0.841565 0.0229986 -4.13954e-17)
(0.842117 0.0158456 4.36392e-16)
(0.855705 0.0260527 -3.50703e-16)
(0.85995 0.0200984 4.70809e-16)
(0.846183 0.0295089 5.84949e-17)
(0.853372 0.0194186 -1.16356e-16)
(0.845457 0.0363409 -1.77541e-16)
(0.855477 0.0217453 1.48982e-16)
(0.86044 0.0436685 1.68267e-16)
(0.864098 0.0239899 -4.03334e-16)
(0.852111 0.0407259 9.59244e-17)
(0.858213 0.0297838 -1.72011e-16)
(0.85122 0.0365095 8.6955e-17)
(0.859044 0.0245463 -2.93718e-17)
(0.866413 0.0259526 -8.28142e-17)
(0.866419 0.0258056 -8.73433e-17)
(0.859046 0.0244873 -2.9479e-17)
(0.851172 0.0366539 6.55771e-17)
(0.858213 0.0296183 -1.88023e-16)
(0.852108 0.0407529 1.46279e-16)
(0.863952 0.0238911 -4.11967e-16)
(0.860818 0.0435116 4.5061e-17)
(0.855514 0.021722 1.98194e-16)
(0.845659 0.0363176 -5.23317e-17)
(0.85349 0.0193588 -8.87573e-17)
(0.845792 0.0291392 -9.79332e-18)
(0.858924 0.0202 2.2813e-16)
(0.855998 0.0261573 5.72347e-17)
(0.843203 0.0153694 4.04008e-17)
(0.840996 0.0232791 -7.53335e-17)
(0.827771 0.0149779 2.17845e-17)
(0.824648 0.0236206 1.5043e-16)
(0.815728 0.0192974 -1.6637e-17)
(0.812587 0.0281215 5.79664e-17)
(0.81217 0.0247865 -6.72687e-19)
(0.811504 0.0260028 3.17294e-17)
(0.800454 0.0261916 1.91111e-17)
(0.783555 0.0239155 1.56543e-17)
(0.715815 0.0102977 1.29595e-17)
(0.673813 0.0239422 1.59469e-17)
(0.699361 0.0306415 1.33471e-17)
(0.659295 -0.00741689 1.39877e-17)
(0.623555 0.00916595 1.32205e-17)
(0.639488 0.00976682 1.41849e-17)
(0.610796 -0.00441151 1.29245e-17)
(0.614521 0.000840295 1.37754e-17)
(0.592857 -0.0106611 1.29541e-17)
(0.599665 -0.009995 1.3492e-17)
(0.590524 -0.0177215 1.30898e-17)
(0.584638 -0.0152097 1.32614e-17)
(0.578501 -0.0207485 1.30579e-17)
(0.570995 -0.0166385 1.31226e-17)
(0.566063 -0.0208674 1.31118e-17)
(0.559317 -0.0166724 1.28654e-17)
(0.554783 -0.0192469 1.30242e-17)
(0.548959 -0.0158558 1.27851e-17)
(0.545084 -0.0171899 1.295e-17)
(0.538761 -0.0139316 1.26673e-17)
(0.534651 -0.0152805 1.28207e-17)
(0.530293 -0.0120965 1.26224e-17)
(0.524481 -0.0131331 1.26267e-17)
(0.520721 -0.0102099 1.2566e-17)
(0.515078 -0.0101863 1.24615e-17)
(0.513002 -0.00854667 1.24132e-17)
(0.506616 -0.00759887 1.23617e-17)
(0.50487 -0.00615252 1.21941e-17)
(0.498394 -0.00524322 1.22662e-17)
(0.496115 -0.00333964 1.19645e-17)
(0.490697 -0.00167581 1.21241e-17)
(0.488572 1.57084e-06 1.17731e-17)
(0.485729 0.00167007 1.19563e-17)
(0.4842 0.00241081 1.1616e-17)
(0.480887 0.00381817 1.17128e-17)
(0.476136 0.00427951 1.14906e-17)
(0.472695 0.00703923 1.1448e-17)
(0.470305 0.00822719 1.13672e-17)
(0.468701 0.00997888 1.12404e-17)
(0.46434 0.0117384 1.11923e-17)
(0.464567 0.0139207 1.10312e-17)
(0.461701 0.0157597 1.098e-17)
(0.46165 0.0174622 1.08725e-17)
(0.459441 0.0196728 1.08663e-17)
(0.460533 0.0210107 1.07351e-17)
(0.45938 0.0228995 1.05834e-17)
(0.459135 0.024526 1.06724e-17)
(0.45952 0.0266461 1.05363e-17)
(0.458725 0.0280014 1.05405e-17)
(0.460581 0.0302465 1.04678e-17)
(0.460389 0.0319259 1.04941e-17)
(0.462533 0.0335635 1.09173e-17)
(0.4629 0.0357328 1.06455e-17)
(0.465044 0.0372267 1.08776e-17)
(0.466226 0.0394113 1.08301e-17)
(0.468243 0.0411021 1.0737e-17)
(0.471099 0.0428879 1.07e-17)
(0.472189 0.0446265 1.08125e-17)
(0.475398 0.0464924 1.07064e-17)
(0.477296 0.0485575 1.08062e-17)
(0.481024 0.0506077 1.01252e-17)
(0.484572 0.0524886 1.03473e-17)
(0.487868 0.0542989 1.00441e-17)
(0.492503 0.0562863 1.08185e-17)
(0.496016 0.0580491 1.04409e-17)
(0.500449 0.0600294 1.02403e-17)
(0.50476 0.0622734 1.04783e-17)
(0.510304 0.0646536 1.01882e-17)
(0.516881 0.0667446 1.18478e-17)
(0.522962 0.0687933 1.17513e-17)
(0.529983 0.0708134 1.16886e-17)
(0.537235 0.0729115 1.17514e-17)
(0.545064 0.0749473 1.25004e-17)
(0.553433 0.0767946 1.1933e-17)
(0.561537 0.078698 1.37934e-17)
(0.570456 0.0805269 1.17915e-17)
(0.580044 0.0825611 1.13587e-17)
(0.589912 0.0841061 1.101e-17)
(0.600155 0.0857564 1.0062e-17)
(0.610185 0.0878214 1.04353e-17)
(0.627138 0.0914713 9.02408e-18)
(0.645212 0.0912457 6.848e-18)
(0.65274 0.0882698 5.87951e-18)
(0.658575 0.0887921 3.32034e-18)
(0.672038 0.091693 2.15767e-18)
(0.687137 0.0920767 -6.92912e-19)
(0.702568 0.0921377 -2.27089e-18)
(0.717916 0.0912935 -7.35037e-19)
(0.733443 0.0903054 -3.46404e-18)
(0.748363 0.0887048 -1.66861e-18)
(0.766257 0.0876641 -3.40466e-18)
(0.783064 0.0844362 -3.03986e-18)
(0.800392 0.0810611 -3.88228e-18)
(0.816222 0.0765331 -3.03632e-18)
(0.83426 0.0729009 -5.31255e-18)
(0.849396 0.0661744 -3.62652e-18)
(0.864739 0.0605808 -6.72609e-18)
(0.875851 0.0523683 -5.272e-18)
(0.888423 0.0462596 -6.94531e-18)
(0.89474 0.034832 -5.25449e-18)
(0.903795 0.0279666 -6.10687e-18)
(0.902273 0.0160378 -4.35817e-18)
(0.901196 0.00873541 -4.6394e-18)
(0.906934 -0.00181433 -2.61777e-18)
(0.895232 -0.00956612 -2.55254e-18)
(0.89947 -0.0156031 -2.03345e-19)
(0.892429 -0.0247699 4.18961e-19)
(0.887365 -0.0304655 3.08963e-18)